 Gaussian 09, Revision D.01,
 Gaussian 09:  ES64L-G09RevD.01 24-Apr-2013

 ----------------------------------------------------------------------
 #p td=(nstates=20) b3lyp/6-31+g(d,p) geom=connectivity scf=maxcyc=1000
 ----------------------------------------------------------------------

 -----
 title
 -----
 Symbolic Z-matrix:
 Charge = -1 Multiplicity = 1

                         Standard orientation:
 ---------------------------------------------------------------------
 Center     Atomic      Atomic             Coordinates (Angstroms)
 Number     Number       Type             X           Y           Z
 ---------------------------------------------------------------------
      1          6           0       -1.997312   -2.505319   -1.140010
      2          6           0        2.226808    1.608492   -0.263118
      3          6           0        4.140929    0.541714    0.264739
      4          6           0        3.053834   -0.392808    0.140097
      5          6           0        2.166438   -2.648307   -0.229939
      6          6           0        0.328920   -3.327169   -1.205407
      7          6           0       -0.055921    2.481847   -0.257163
      8          6           0       -1.008056    3.547411   -0.039296
      9          6           0       -2.832530   -0.757659   -0.100190
     10          6           0       -3.894132   -1.677277   -0.266349
     11          6           0       -1.995071    1.534833    0.184321
     12          1           0       -4.921192   -1.510437    0.025408
     13          1           0       -0.785977    4.604194   -0.085974
     14          1           0        5.161337    0.284499    0.512406
     15          7           0        0.906836   -2.235303   -0.625790
     16          7           0       -1.659042   -1.291531   -0.596379
     17          7           0        1.882398    0.283787   -0.175789
     18          7           0       -0.676631    1.262048   -0.149271
     19          6           0        3.641442    1.774398   -0.029632
     20          1           0        4.171864    2.716124   -0.047760
     21          6           0        2.341000   -4.035903   -0.522250
     22          1           0        3.228701   -4.615472   -0.308842
     23          6           0       -3.399058   -2.781704   -0.948329
     24          6           0       -2.191993    2.959784    0.282152
     25          1           0       -3.124608    3.446173    0.531877
     26          6           0       -1.022884   -3.407407   -1.726439
     27          6           0       -2.990440    0.582873    0.306997
     28          6           0        3.178089   -1.772208    0.196622
     29          6           0        1.320974    2.667291   -0.403828
     30          6           0        4.486795   -2.363393    0.612118
     31          6           0        5.562184   -2.501095   -0.272834
     32          6           0        4.690861   -2.827546    1.916769
     33          6           0        6.778400   -3.062352    0.112888
     34          6           0        5.896237   -3.393923    2.327497
     35          6           0        6.944955   -3.510913    1.419860
     36          6           0        1.858665    4.051750   -0.549107
     37          6           0        2.243457    4.557845   -1.797586
     38          6           0        2.022506    4.914248    0.542681
     39          6           0        2.758104    5.843138   -1.959318
     40          6           0        2.531308    6.204805    0.409035
     41          6           0        2.901190    6.670569   -0.849411
     42          6           0       -4.343655    1.012982    0.775400
     43          6           0       -5.296053    1.559835   -0.092088
     44          6           0       -4.729594    0.870417    2.113166
     45          6           0       -6.561684    1.951714    0.340475
     46          6           0       -5.989501    1.251834    2.571140
     47          6           0       -6.909593    1.794720    1.678981
     48         28           0        0.115833   -0.490587   -0.399174
     49          6           0       -4.204500   -3.955920   -1.276203
     50         16           0       -5.599586   -4.310453   -0.249588
     51          6           0       -5.193540   -5.838334   -2.275034
     52          9           0        3.709571   -2.729173    2.828110
     53          9           0        6.057859   -3.823127    3.591908
     54          9           0        8.112859   -4.052619    1.803858
     55          9           0        7.791590   -3.175751   -0.765064
     56          9           0        5.446598   -2.088789   -1.546170
     57          9           0        2.118697    3.799369   -2.898977
     58          9           0        3.112817    6.294287   -3.176075
     59          9           0        3.394020    7.912413   -0.991700
     60          9           0        2.674778    7.002503    1.483522
     61          9           0        1.692831    4.505885    1.780073
     62          9           0       -5.006501    1.727133   -1.393260
     63          9           0       -7.449532    2.478790   -0.521861
     64          9           0       -8.126180    2.169337    2.108400
     65          9           0       -6.323479    1.104356    3.865681
     66          9           0       -3.873086    0.355588    3.010439
     67          8           0       -1.327711   -4.292482   -2.550909
     68          6           0       -4.141101   -4.875417   -2.302555
     69          6           0       -6.063366   -5.662665   -1.230980
     70          1           0       -5.295731   -6.631650   -3.008126
     71          1           0       -6.935885   -6.248429   -0.974415
     72          1           0       -3.344925   -4.847863   -3.032191
     73          6           0        1.196583   -4.449521   -1.166072
     74          1           0        0.949465   -5.422394   -1.564968
 ---------------------------------------------------------------------

 SCF Done:  E(RB3LYP) =  -5304.92472823     A.U. after   32 cycles

 Excitation energies and oscillator strengths:

 Excited State   1:      Singlet-A      1.9209 eV  645.43 nm  f=0.1748  <S**2>=0.000
     235 -> 248       -0.13000
     238 -> 241        0.14336
     239 -> 240        0.67206
 This state for optimization and/or second-order correction.
 Total Energy, E(TD-HF/TD-KS) =  -5304.85413464
 Copying the excited state density for this state as the 1-particle RhoCI density.

 Excited State   2:      Singlet-A      1.9612 eV  632.18 nm  f=0.0091  <S**2>=0.000
     234 -> 248        0.12987
     235 -> 242       -0.10837
     235 -> 246        0.13951
     235 -> 247       -0.13690
     235 -> 248        0.63594
     239 -> 240        0.13461
     235 <- 248       -0.12444

 Excited State   3:      Singlet-A      2.0382 eV  608.30 nm  f=0.0018  <S**2>=0.000
     228 -> 248        0.17612
     230 -> 248       -0.18017
     232 -> 248       -0.10954
     233 -> 248        0.24369
     236 -> 248        0.33484
     237 -> 248       -0.25085
     238 -> 248       -0.11084
     239 -> 248       -0.25903

 Excited State   4:      Singlet-A      2.1197 eV  584.91 nm  f=0.0001  <S**2>=0.000
     227 -> 248        0.21180
     228 -> 248        0.18529
     233 -> 248       -0.26872
     234 -> 248       -0.25535
     236 -> 248        0.40477
     237 -> 248        0.21063

 Excited State   5:      Singlet-A      2.2286 eV  556.33 nm  f=0.0052  <S**2>=0.000
     238 -> 240        0.52520
     239 -> 241       -0.46475

 Excited State   6:      Singlet-A      2.3620 eV  524.91 nm  f=0.0002  <S**2>=0.000
     219 -> 248        0.24311
     228 -> 248        0.12148
     232 -> 248       -0.13358
     236 -> 248        0.15320
     237 -> 248       -0.11875
     239 -> 242       -0.11379
     239 -> 246        0.12261
     239 -> 247       -0.11513
     239 -> 248        0.51946

 Excited State   7:      Singlet-A      2.5841 eV  479.81 nm  f=0.1168  <S**2>=0.000
     237 -> 240        0.54525
     238 -> 240        0.26230
     239 -> 241        0.28496
     239 -> 242        0.13478

 Excited State   8:      Singlet-A      2.6609 eV  465.95 nm  f=0.0064  <S**2>=0.000
     237 -> 240       -0.18688
     239 -> 242        0.65141
     239 -> 243       -0.10541

 Excited State   9:      Singlet-A      2.6968 eV  459.74 nm  f=0.0044  <S**2>=0.000
     239 -> 242       -0.12827
     239 -> 243       -0.36965
     239 -> 244        0.53969
     239 -> 245        0.18099

 Excited State  10:      Singlet-A      2.7480 eV  451.18 nm  f=0.0052  <S**2>=0.000
     239 -> 243        0.18466
     239 -> 244        0.11183
     239 -> 246        0.64028
     239 -> 248       -0.15435

 Excited State  11:      Singlet-A      2.7863 eV  444.97 nm  f=0.0013  <S**2>=0.000
     239 -> 243        0.54922
     239 -> 244        0.37114
     239 -> 246       -0.21847

 Excited State  12:      Singlet-A      2.8228 eV  439.22 nm  f=0.0004  <S**2>=0.000
     219 -> 246       -0.10936
     219 -> 247        0.10769
     219 -> 248       -0.50098
     229 -> 248        0.16993
     230 -> 248       -0.11356
     232 -> 248        0.11413
     239 -> 248        0.30725

 Excited State  13:      Singlet-A      2.8306 eV  438.02 nm  f=0.0005  <S**2>=0.000
     239 -> 244       -0.17601
     239 -> 245        0.66612

 Excited State  14:      Singlet-A      2.8823 eV  430.16 nm  f=0.0088  <S**2>=0.000
     236 -> 240       -0.33834
     239 -> 247        0.58916

 Excited State  15:      Singlet-A      2.8866 eV  429.51 nm  f=0.0076  <S**2>=0.000
     235 -> 240       -0.10013
     236 -> 240        0.57149
     239 -> 247        0.33984
     239 -> 248        0.10647

 Excited State  16:      Singlet-A      2.9008 eV  427.41 nm  f=0.0068  <S**2>=0.000
     234 -> 240        0.10919
     235 -> 240        0.66980
     236 -> 240        0.10995
     238 -> 241        0.14240

 Excited State  17:      Singlet-A      2.9673 eV  417.83 nm  f=0.2123  <S**2>=0.000
     235 -> 240       -0.11769
     238 -> 241        0.59774
     239 -> 240       -0.12452
     239 -> 241       -0.10148
     239 -> 249       -0.17435
     239 -> 250        0.11348

 Excited State  18:      Singlet-A      2.9783 eV  416.29 nm  f=0.3970  <S**2>=0.000
     233 -> 240       -0.12199
     237 -> 240        0.25545
     238 -> 240       -0.26120
     238 -> 241       -0.12510
     239 -> 241       -0.30554
     239 -> 249        0.18705
     239 -> 250        0.34673
     239 -> 251       -0.18019

 Excited State  19:      Singlet-A      3.0094 eV  411.99 nm  f=0.0394  <S**2>=0.000
     238 -> 241        0.18716
     239 -> 249        0.63183
     239 -> 250       -0.22600

 Excited State  20:      Singlet-A      3.0364 eV  408.33 nm  f=0.1301  <S**2>=0.000
     237 -> 240       -0.11628
     238 -> 240        0.14336
     239 -> 241        0.16587
     239 -> 249        0.16317
     239 -> 250        0.53462
     239 -> 251        0.30273

 The electronic state is 1-A.
 Alpha  occ. eigenvalues -- -299.80033 -88.83182 -35.75039 -31.19018 -31.18954
 Alpha  occ. eigenvalues --  -31.15565 -24.70631 -24.70574 -24.70350 -24.70018
 Alpha  occ. eigenvalues --  -24.69954 -24.69951 -24.69914 -24.69724 -24.69697
 Alpha  occ. eigenvalues --  -24.68759 -24.68706 -24.68653 -24.68647 -24.68498
 Alpha  occ. eigenvalues --  -24.68464 -19.02928 -14.27368 -14.27315 -14.27193
 Alpha  occ. eigenvalues --  -14.27166 -10.26421 -10.26384 -10.26164 -10.25721
 Alpha  occ. eigenvalues --  -10.25687 -10.25686 -10.25662 -10.25463 -10.25444
 Alpha  occ. eigenvalues --  -10.25405 -10.25379 -10.25362 -10.25326 -10.25178
 Alpha  occ. eigenvalues --  -10.25161 -10.18309 -10.18239 -10.18090 -10.17311
 Alpha  occ. eigenvalues --  -10.15675 -10.15620 -10.15115 -10.15077 -10.14728
 Alpha  occ. eigenvalues --  -10.14633 -10.14492 -10.14262 -10.14244 -10.14092
 Alpha  occ. eigenvalues --  -10.13749 -10.13538 -10.12915 -10.12437 -10.12390
 Alpha  occ. eigenvalues --  -10.12278 -10.12172 -10.12046 -10.11905 -10.10659
 Alpha  occ. eigenvalues --  -10.10488 -10.10361 -10.10086  -7.89118  -5.85538
 Alpha  occ. eigenvalues --   -5.85175  -5.84829  -3.94844  -2.55290  -2.55195
 Alpha  occ. eigenvalues --   -2.49543  -1.21967  -1.21920  -1.21698  -1.20907
 Alpha  occ. eigenvalues --   -1.20872  -1.20653  -1.20333  -1.20299  -1.20081
 Alpha  occ. eigenvalues --   -1.19206  -1.19177  -1.19112  -1.19111  -1.18969
 Alpha  occ. eigenvalues --   -1.18905  -0.92688  -0.89423  -0.88427  -0.87826
 Alpha  occ. eigenvalues --   -0.87126  -0.85446  -0.85378  -0.85208  -0.79970
 Alpha  occ. eigenvalues --   -0.77597  -0.76661  -0.76071  -0.73087  -0.73081
 Alpha  occ. eigenvalues --   -0.72865  -0.71692  -0.71048  -0.70518  -0.70347
 Alpha  occ. eigenvalues --   -0.69705  -0.69396  -0.68324  -0.65614  -0.65230
 Alpha  occ. eigenvalues --   -0.64678  -0.63183  -0.62324  -0.62169  -0.61351
 Alpha  occ. eigenvalues --   -0.61345  -0.61136  -0.60451  -0.57871  -0.57389
 Alpha  occ. eigenvalues --   -0.54867  -0.54705  -0.54526  -0.54054  -0.54022
 Alpha  occ. eigenvalues --   -0.53837  -0.53273  -0.53066  -0.52798  -0.52646
 Alpha  occ. eigenvalues --   -0.51084  -0.50591  -0.49862  -0.49828  -0.49803
 Alpha  occ. eigenvalues --   -0.49588  -0.49482  -0.49157  -0.49034  -0.48512
 Alpha  occ. eigenvalues --   -0.48075  -0.47619  -0.47546  -0.47510  -0.47373
 Alpha  occ. eigenvalues --   -0.46903  -0.46633  -0.46586  -0.46431  -0.46142
 Alpha  occ. eigenvalues --   -0.45275  -0.44664  -0.44623  -0.44405  -0.44246
 Alpha  occ. eigenvalues --   -0.43847  -0.43785  -0.43627  -0.43183  -0.43155
 Alpha  occ. eigenvalues --   -0.42742  -0.41698  -0.41631  -0.41603  -0.41568
 Alpha  occ. eigenvalues --   -0.41413  -0.41382  -0.39618  -0.39588  -0.39562
 Alpha  occ. eigenvalues --   -0.39343  -0.39331  -0.39179  -0.39114  -0.38831
 Alpha  occ. eigenvalues --   -0.37632  -0.37473  -0.37105  -0.36596  -0.36580
 Alpha  occ. eigenvalues --   -0.36369  -0.35711  -0.35442  -0.34862  -0.34717
 Alpha  occ. eigenvalues --   -0.34576  -0.34209  -0.34097  -0.33772  -0.33714
 Alpha  occ. eigenvalues --   -0.33664  -0.33497  -0.32915  -0.32786  -0.32325
 Alpha  occ. eigenvalues --   -0.31933  -0.31702  -0.31537  -0.31196  -0.30873
 Alpha  occ. eigenvalues --   -0.30699  -0.30488  -0.30249  -0.29923  -0.29787
 Alpha  occ. eigenvalues --   -0.29510  -0.29243  -0.27698  -0.27297  -0.25996
 Alpha  occ. eigenvalues --   -0.25046  -0.24867  -0.23728  -0.22196  -0.21935
 Alpha  occ. eigenvalues --   -0.21583  -0.21506  -0.21143  -0.20933  -0.20904
 Alpha  occ. eigenvalues --   -0.20731  -0.20639  -0.20509  -0.19315  -0.17615
 Alpha  occ. eigenvalues --   -0.17401  -0.17157  -0.16097  -0.15624  -0.15461
 Alpha  occ. eigenvalues --   -0.14668  -0.13367  -0.11699  -0.09638
 Alpha virt. eigenvalues --   -0.01536   0.00534   0.02031   0.02088   0.02167
 Alpha virt. eigenvalues --    0.02277   0.02358   0.02469   0.02537   0.03171
 Alpha virt. eigenvalues --    0.03208   0.03404   0.03947   0.07011   0.07083

 Mulliken charges:
               1
     1  C    0.290787
     2  C    0.539907
     3  C   -0.536654
     4  C    0.581227
     5  C    0.520279
     6  C    0.056818
     7  C    0.659131
     8  C   -0.515691
     9  C    0.010096
    10  C   -0.908814
    11  C    0.417481
    12  H    0.118357
    13  H    0.113834
    14  H    0.114423
    15  N    0.142735
    16  N    0.151000
    17  N    0.110413
    18  N    0.121842
    19  C   -0.532246
    20  H    0.113245
    21  C   -0.387667
    22  H    0.107018
    23  C    0.458425
    24  C   -0.466747
    25  H    0.115940
    26  C    0.303937
    27  C    0.426727
    28  C    0.304509
    29  C    0.282769
    30  C   -0.717270
    31  C    0.026816
    32  C    0.437588
    33  C    0.189633
    34  C    0.193690
    35  C    0.602748
    36  C   -0.631613
    37  C    0.368561
    38  C   -0.195848
    39  C    0.303486
    40  C    0.328621
    41  C    0.525505
    42  C   -0.771354
    43  C   -0.003274
    44  C    0.282725
    45  C    0.335323
    46  C    0.358787
    47  C    0.514280
    48  Ni   0.109920
    49  C   -0.261597
    50  S   -0.063665
    51  C   -0.284600
    52  F   -0.297451
    53  F   -0.347041
    54  F   -0.344053
    55  F   -0.345548
    56  F   -0.297616
    57  F   -0.296405
    58  F   -0.350114
    59  F   -0.343558
    60  F   -0.349424
    61  F   -0.294995
    62  F   -0.293546
    63  F   -0.345541
    64  F   -0.342139
    65  F   -0.345842
    66  F   -0.297399
    67  O   -0.570307
    68  C    0.069388
    69  C   -0.108920
    70  H    0.118783
    71  H    0.138033
    72  H    0.169905
    73  C   -0.424898
    74  H    0.137147
 Sum of Mulliken charges =  -1.00000

 Dipole moment (field-independent basis, Debye):
    X=              1.8491    Y=              4.5742    Z=              2.5553  Tot=              5.5562
 Quadrupole moment (field-independent basis, Debye-Ang):
   XX=           -452.8404   YY=           -438.0317   ZZ=           -411.5042
   XY=             -4.0158   XZ=             -0.7205   YZ=             -5.3237

 Normal termination of Gaussian 09 at Sun Mar 14 04:32:04 2021.
