 Gaussian 16, Revision C.01,
 Gaussian 16:  ES64L-G16RevC.01  3-Jul-2019

 ----------------------------------------------------
 # opt b3lyp/genecp geom=connectivity scf=maxcyc=1000
 ----------------------------------------------------

 -----
 title
 -----
 Symbolic Z-matrix:
 Charge = -1 Multiplicity = 1

 SCF Done:  E(RB3LYP) =  -3965.88030443     A.U. after   26 cycles
 SCF Done:  E(RB3LYP) =  -3965.93452017     A.U. after   23 cycles
 SCF Done:  E(RB3LYP) =  -3965.94916246     A.U. after   64 cycles
 SCF Done:  E(RB3LYP) =  -3965.98054813     A.U. after   63 cycles
 SCF Done:  E(RB3LYP) =  -3965.98446178     A.U. after  587 cycles
 SCF Done:  E(RB3LYP) =  -3965.98418419     A.U. after   80 cycles
 SCF Done:  E(RB3LYP) =  -3965.98580891     A.U. after   19 cycles
 SCF Done:  E(RB3LYP) =  -3965.98605345     A.U. after   18 cycles
 SCF Done:  E(RB3LYP) =  -3965.98617219     A.U. after   19 cycles
 SCF Done:  E(RB3LYP) =  -3965.98620307     A.U. after   17 cycles
 SCF Done:  E(RB3LYP) =  -3965.98624486     A.U. after   15 cycles
 SCF Done:  E(RB3LYP) =  -3965.98625612     A.U. after   16 cycles
 SCF Done:  E(RB3LYP) =  -3965.98626231     A.U. after   15 cycles
 SCF Done:  E(RB3LYP) =  -3965.98626390     A.U. after   15 cycles
 SCF Done:  E(RB3LYP) =  -3965.98626485     A.U. after   15 cycles
 SCF Done:  E(RB3LYP) =  -3965.98626526     A.U. after   15 cycles
 SCF Done:  E(RB3LYP) =  -3965.98626547     A.U. after   14 cycles
 SCF Done:  E(RB3LYP) =  -3965.98626565     A.U. after   14 cycles
 SCF Done:  E(RB3LYP) =  -3965.98626572     A.U. after   13 cycles
 SCF Done:  E(RB3LYP) =  -3965.98626576     A.U. after   12 cycles
 Optimization completed.
    -- Stationary point found.

                         Standard orientation:
 ---------------------------------------------------------------------
 Center     Atomic      Atomic             Coordinates (Angstroms)
 Number     Number       Type             X           Y           Z
 ---------------------------------------------------------------------
      1          6           0       -1.993010   -2.560307   -1.065733
      2          6           0        2.220086    1.619081   -0.243447
      3          6           0        4.149708    0.568017    0.263760
      4          6           0        3.069762   -0.376621    0.144681
      5          6           0        2.198910   -2.648280   -0.198689
      6          6           0        1.228355   -4.480525   -1.074129
      7          6           0        0.347136   -3.368119   -1.118489
      8          6           0       -0.073160    2.478443   -0.252151
      9          6           0       -1.035056    3.541318   -0.059881
     10          6           0       -2.844372   -0.780393   -0.094376
     11          6           0       -3.902317   -1.707986   -0.242551
     12          6           0       -2.016192    1.524543    0.160956
     13          1           0       -4.933057   -1.535036    0.032663
     14          1           0       -0.818196    4.599013   -0.111600
     15          1           0        5.174883    0.319831    0.501490
     16          7           0        0.926933   -2.259279   -0.575802
     17          7           0       -1.666098   -1.327877   -0.560172
     18          7           0        1.891261    0.291415   -0.158532
     19          7           0       -0.691073    1.258221   -0.146019
     20          6           0        3.635137    1.798022   -0.017697
     21          1           0        4.155994    2.745215   -0.033992
     22          6           0        2.382816   -4.040191   -0.466161
     23          1           0        3.280867   -4.606339   -0.259642
     24          6           0       -3.396771   -2.834351   -0.880611
     25          6           0       -2.222889    2.949999    0.241406
     26          1           0       -3.163004    3.433542    0.468034
     27          6           0       -1.011322   -3.475499   -1.620292
     28          6           0       -3.009690    0.569665    0.280044
     29          6           0        3.207990   -1.755104    0.200453
     30          6           0        1.305043    2.671088   -0.384435
     31          6           0        4.532417   -2.329267    0.590203
     32          6           0        5.575972   -2.490244   -0.328419
     33          6           0        4.784220   -2.751977    1.900511
     34          6           0        6.807336   -3.036707    0.030254
     35          6           0        6.005971   -3.302351    2.284999
     36          6           0        7.021993   -3.444693    1.343915
     37          6           0        1.834441    4.058685   -0.529533
     38          6           0        2.247162    4.555470   -1.773161
     39          6           0        1.961438    4.934331    0.556989
     40          6           0        2.753258    5.844307   -1.935481
     41          6           0        2.460288    6.229007    0.422386
     42          6           0        2.858377    6.685457   -0.831200
     43          6           0       -4.371596    1.006071    0.717083
     44          6           0       -5.325527    1.490572   -0.185269
     45          6           0       -4.762338    0.935379    2.059134
     46          6           0       -6.598514    1.890358    0.218364
     47          6           0       -6.029381    1.326826    2.489005
     48          6           0       -6.951289    1.806292    1.562574
     49         28           0        0.117750   -0.505292   -0.373342
     50          6           0       -4.199325   -4.018795   -1.178886
     51          6           0       -5.180353   -5.931715   -2.127471
     52          1           0       -3.320327   -4.970237   -2.894261
     53          9           0        3.834876   -2.629533    2.842074
     54          9           0        6.213994   -3.693236    3.554834
     55          9           0        8.204453   -3.971800    1.701953
     56          9           0        7.788780   -3.174135   -0.879247
     57          9           0        5.413462   -2.114768   -1.607630
     58          9           0        2.158908    3.784156   -2.868995
     59          9           0        3.135537    6.285436   -3.147353
     60          9           0        3.342267    7.930538   -0.974006
     61          9           0        2.567336    7.039278    1.491392
     62          9           0        1.604421    4.535728    1.789839
     63          9           0       -5.029597    1.588836   -1.491680
     64          9           0       -7.488064    2.356421   -0.676327
     65          9           0       -8.174344    2.189560    1.964154
     66          9           0       -6.368544    1.248865    3.788003
     67          9           0       -3.904401    0.481947    2.987380
     68          1           0       -5.275535   -6.748567   -2.835447
     69          8           0       -1.313899   -4.391904   -2.411258
     70          6           0       -4.125196   -4.972176   -2.173639
     71          6           0       -6.062526   -5.719889   -1.100034
     72          1           0       -6.939765   -6.294851   -0.834655
     73         16           0       -5.606976   -4.337121   -0.158680
     74          1           0        0.983087   -5.464660   -1.445822
 ---------------------------------------------------------------------

 The electronic state is 1-A.
 Alpha  occ. eigenvalues --  -88.81493 -24.69966 -24.69926 -24.69700 -24.69360
 Alpha  occ. eigenvalues --  -24.69309 -24.69296 -24.69281 -24.69075 -24.69061
 Alpha  occ. eigenvalues --  -24.68125 -24.68085 -24.68051 -24.68015 -24.67883
 Alpha  occ. eigenvalues --  -24.67855 -19.02586 -14.27154 -14.27085 -14.27006
 Alpha  occ. eigenvalues --  -14.26934 -10.26092 -10.26080 -10.25858 -10.25393
 Alpha  occ. eigenvalues --  -10.25375 -10.25359 -10.25357 -10.25148 -10.25135
 Alpha  occ. eigenvalues --  -10.25107 -10.25093 -10.25046 -10.25011 -10.24883
 Alpha  occ. eigenvalues --  -10.24871 -10.17907 -10.17833 -10.17688 -10.17043
 Alpha  occ. eigenvalues --  -10.15408 -10.15348 -10.14825 -10.14784 -10.14352
 Alpha  occ. eigenvalues --  -10.14131 -10.14109 -10.13958 -10.13948 -10.13603
 Alpha  occ. eigenvalues --  -10.13456 -10.13114 -10.12647 -10.12074 -10.12031
 Alpha  occ. eigenvalues --  -10.11866 -10.11804 -10.11676 -10.11499 -10.10295
 Alpha  occ. eigenvalues --  -10.10078 -10.09979 -10.09690  -7.88785  -5.85134
 Alpha  occ. eigenvalues --   -5.84772  -5.84427  -3.95714  -2.57530  -2.57428
 Alpha  occ. eigenvalues --   -2.51704  -1.21950  -1.21923  -1.21698  -1.20894
 Alpha  occ. eigenvalues --   -1.20877  -1.20654  -1.20319  -1.20304  -1.20083
 Alpha  occ. eigenvalues --   -1.19188  -1.19180  -1.19122  -1.19099  -1.18968
 Alpha  occ. eigenvalues --   -1.18910  -0.92667  -0.89367  -0.88399  -0.87790
 Alpha  occ. eigenvalues --   -0.87123  -0.85409  -0.85330  -0.85171  -0.79967
 Alpha  occ. eigenvalues --   -0.77562  -0.76646  -0.76042  -0.73069  -0.73051
 Alpha  occ. eigenvalues --   -0.72848  -0.71639  -0.71002  -0.70461  -0.70306
 Alpha  occ. eigenvalues --   -0.69672  -0.69349  -0.68282  -0.65583  -0.65221
 Alpha  occ. eigenvalues --   -0.64667  -0.63164  -0.62302  -0.62161  -0.61352
 Alpha  occ. eigenvalues --   -0.61326  -0.61134  -0.60427  -0.57875  -0.57376
 Alpha  occ. eigenvalues --   -0.54862  -0.54706  -0.54530  -0.54062  -0.54013
 Alpha  occ. eigenvalues --   -0.53843  -0.53273  -0.53046  -0.52797  -0.52648
 Alpha  occ. eigenvalues --   -0.51097  -0.50569  -0.49848  -0.49821  -0.49819
 Alpha  occ. eigenvalues --   -0.49601  -0.49486  -0.49155  -0.49029  -0.48513
 Alpha  occ. eigenvalues --   -0.48058  -0.47610  -0.47546  -0.47510  -0.47371
 Alpha  occ. eigenvalues --   -0.46854  -0.46651  -0.46576  -0.46442  -0.46136
 Alpha  occ. eigenvalues --   -0.45249  -0.44661  -0.44636  -0.44413  -0.44224
 Alpha  occ. eigenvalues --   -0.43842  -0.43790  -0.43624  -0.43184  -0.43151
 Alpha  occ. eigenvalues --   -0.42737  -0.41691  -0.41633  -0.41614  -0.41576
 Alpha  occ. eigenvalues --   -0.41415  -0.41397  -0.39609  -0.39582  -0.39571
 Alpha  occ. eigenvalues --   -0.39346  -0.39328  -0.39179  -0.39099  -0.38827
 Alpha  occ. eigenvalues --   -0.37623  -0.37455  -0.37149  -0.36583  -0.36574
 Alpha  occ. eigenvalues --   -0.36366  -0.35659  -0.35444  -0.34835  -0.34689
 Alpha  occ. eigenvalues --   -0.34559  -0.34198  -0.34098  -0.33761  -0.33714
 Alpha  occ. eigenvalues --   -0.33664  -0.33489  -0.32919  -0.32774  -0.32270
 Alpha  occ. eigenvalues --   -0.31931  -0.31679  -0.31544  -0.31182  -0.30840
 Alpha  occ. eigenvalues --   -0.30680  -0.30471  -0.30226  -0.29922  -0.29795
 Alpha  occ. eigenvalues --   -0.29488  -0.29243  -0.27709  -0.27222  -0.25969
 Alpha  occ. eigenvalues --   -0.24851  -0.24690  -0.23803  -0.23546  -0.21900
 Alpha  occ. eigenvalues --   -0.21586  -0.21465  -0.21326  -0.21148  -0.21024
 Alpha  occ. eigenvalues --   -0.20907  -0.20857  -0.20679  -0.19413  -0.17790
 Alpha  occ. eigenvalues --   -0.17417  -0.17222  -0.16514  -0.16386  -0.15750
 Alpha  occ. eigenvalues --   -0.15164  -0.13506  -0.11736  -0.09625
 Alpha virt. eigenvalues --   -0.01573   0.00495   0.01688   0.02068   0.02111
 Alpha virt. eigenvalues --    0.02173   0.02298   0.02360   0.02494   0.03166
 Alpha virt. eigenvalues --    0.03200   0.03399   0.03924   0.06995   0.07074

 Mulliken charges:
               1
     1  C    0.166734
     2  C    0.256213
     3  C   -0.092770
     4  C    0.184184
     5  C   -0.101676
     6  C   -0.247159
     7  C    0.013109
     8  C    0.212636
     9  C   -0.162854
    10  C   -0.100431
    11  C   -0.393211
    12  C    0.241912
    13  H    0.118601
    14  H    0.114790
    15  H    0.115533
    16  N    0.415791
    17  N    0.537855
    18  N    0.338040
    19  N    0.294625
    20  C   -0.191799
    21  H    0.113490
    22  C    0.047724
    23  H    0.107305
    24  C    0.541717
    25  C   -0.080293
    26  H    0.117011
    27  C   -0.002634
    28  C    0.165674
    29  C    0.138968
    30  C    0.027711
    31  C   -0.680655
    32  C    0.083337
    33  C    0.221496
    34  C    0.242410
    35  C    0.306606
    36  C    0.499764
    37  C   -0.652603
    38  C    0.186739
    39  C    0.042308
    40  C    0.310349
    41  C    0.280075
    42  C    0.499536
    43  C   -0.765605
    44  C    0.118468
    45  C    0.173957
    46  C    0.275949
    47  C    0.361659
    48  C    0.473996
    49  Ni  -0.498289
    50  C   -0.325347
    51  C   -0.249543
    52  H    0.172750
    53  F   -0.279379
    54  F   -0.354050
    55  F   -0.351060
    56  F   -0.352010
    57  F   -0.278159
    58  F   -0.278889
    59  F   -0.355599
    60  F   -0.352148
    61  F   -0.353810
    62  F   -0.279130
    63  F   -0.270064
    64  F   -0.352325
    65  F   -0.351474
    66  F   -0.353396
    67  F   -0.276155
    68  H    0.119941
    69  O   -0.554171
    70  C    0.147687
    71  C   -0.129283
    72  H    0.140846
    73  S    0.000306
    74  H    0.138171
 Sum of Mulliken charges =  -1.00000

 Dipole moment (field-independent basis, Debye):
    X=              1.8295    Y=              4.6434    Z=              2.3993  Tot=              5.5376
 Quadrupole moment (field-independent basis, Debye-Ang):
   XX=           -453.0381   YY=           -438.5504   ZZ=           -410.3999
   XY=             -4.2062   XZ=             -0.5583   YZ=             -5.8306

 Normal termination of Gaussian 16 at Thu Oct 21 06:13:50 2021.
