 Gaussian 16, Revision C.01,
 Gaussian 16:  ES64L-G16RevC.01  3-Jul-2019

 ----------------------------------------------------
 # opt b3lyp/genecp geom=connectivity scf=maxcyc=1000
 ----------------------------------------------------

 -----
 title
 -----
 Symbolic Z-matrix:
 Charge = -1 Multiplicity = 1

 SCF Done:  E(RB3LYP) =  -3871.51556737     A.U. after   24 cycles
 SCF Done:  E(RB3LYP) =  -3871.60597961     A.U. after   18 cycles
 SCF Done:  E(RB3LYP) =  -3871.71644118     A.U. after   23 cycles
 SCF Done:  E(RB3LYP) =  -3871.74029030     A.U. after   49 cycles
 SCF Done:  E(RB3LYP) =  -3871.82840273     A.U. after   44 cycles
 SCF Done:  E(RB3LYP) =  -3871.84229763     A.U. after   64 cycles
 SCF Done:  E(RB3LYP) =  -3871.84953298     A.U. after   23 cycles
 SCF Done:  E(RB3LYP) =  -3871.85019998     A.U. after   18 cycles
 SCF Done:  E(RB3LYP) =  -3871.85520933     A.U. after   18 cycles
 SCF Done:  E(RB3LYP) =  -3871.85507419     A.U. after   19 cycles
 SCF Done:  E(RB3LYP) =  -3871.85597140     A.U. after   17 cycles
 SCF Done:  E(RB3LYP) =  -3871.85592691     A.U. after   17 cycles
 SCF Done:  E(RB3LYP) =  -3871.85604048     A.U. after   16 cycles
 SCF Done:  E(RB3LYP) =  -3871.85605231     A.U. after   14 cycles
 SCF Done:  E(RB3LYP) =  -3871.85605733     A.U. after   15 cycles
 SCF Done:  E(RB3LYP) =  -3871.85606579     A.U. after   14 cycles
 SCF Done:  E(RB3LYP) =  -3871.85606720     A.U. after   15 cycles
 SCF Done:  E(RB3LYP) =  -3871.85606803     A.U. after   12 cycles
 SCF Done:  E(RB3LYP) =  -3871.85606842     A.U. after   12 cycles
 SCF Done:  E(RB3LYP) =  -3871.85606860     A.U. after   13 cycles
 Optimization completed.
    -- Stationary point found.

                         Standard orientation:
 ---------------------------------------------------------------------
 Center     Atomic      Atomic             Coordinates (Angstroms)
 Number     Number       Type             X           Y           Z
 ---------------------------------------------------------------------
      1          6           0       -1.263871   -2.771161   -0.905655
      2          6           0        1.240878    2.586017   -0.309944
      3          6           0        3.398996    2.288251    0.275841
      4          6           0        2.701663    1.027321    0.232319
      5          6           0        2.653602   -1.425340    0.056368
      6          6           0        2.436554   -3.538680   -0.723327
      7          6           0        1.216864   -2.790473   -0.898368
      8          6           0       -1.205785    2.609853   -0.319082
      9          6           0       -2.470828    3.287888   -0.147859
     10          6           0       -2.687219   -1.381116    0.033062
     11          6           0       -3.363430   -2.616195   -0.108560
     12          6           0       -2.698269    1.072982    0.200513
     13          1           0       -4.386364   -2.818080    0.170949
     14          1           0       -2.631451    4.351212   -0.257129
     15          1           0        4.441097    2.418182    0.533160
     16          7           0        1.355823   -1.522517   -0.406129
     17          7           0       -1.387252   -1.499646   -0.418089
     18          7           0        1.378921    1.235168   -0.126643
     19          7           0       -1.366175    1.260767   -0.133053
     20          6           0        2.509569    3.247371   -0.104024
     21          1           0        2.682142    4.310696   -0.195919
     22          6           0        3.312183   -2.670042   -0.084357
     23          1           0        4.329834   -2.888164    0.202178
     24          6           0       -2.495951   -3.500236   -0.737513
     25          6           0       -3.379626    2.343331    0.221252
     26          1           0       -4.425431    2.488420    0.454196
     27          6           0       -0.026109   -3.314900   -1.437186
     28          6           0       -3.303276   -0.160169    0.374690
     29          6           0        3.284872   -0.215789    0.410424
     30          6           0        0.024394    3.252440   -0.501402
     31          6           0        4.703275   -0.283710    0.878010
     32          6           0        5.786141   -0.178837   -0.002437
     33          6           0        5.014104   -0.474261    2.229262
     34          6           0        7.109039   -0.253535    0.430697
     35          6           0        6.327923   -0.554037    2.688305
     36          6           0        7.379785   -0.442520    1.783192
     37          6           0        0.047938    4.724347   -0.744818
     38          6           0        0.267379    5.247225   -2.026314
     39          6           0       -0.133992    5.661729    0.280703
     40          6           0        0.302180    6.617378   -2.281404
     41          6           0       -0.108209    7.036698    0.052970
     42          6           0        0.111422    7.516130   -1.235543
     43          6           0       -4.729034   -0.203381    0.822760
     44          6           0       -5.797867   -0.098039   -0.074581
     45          6           0       -5.061407   -0.369601    2.172065
     46          6           0       -7.127615   -0.149485    0.340523
     47          6           0       -6.382536   -0.425967    2.613326
     48          6           0       -7.419929   -0.314832    1.691635
     49         28           0       -0.004872   -0.128475   -0.287214
     50          6           0       -2.863234   -4.868660   -1.054229
     51          6           0       -3.304387   -6.982908   -1.707495
     52          1           0       -1.515533   -5.819472   -2.468156
     53          6           0        2.785719   -4.911326   -1.042161
     54          6           0        3.200820   -7.029228   -1.700636
     55          1           0        1.435647   -5.836297   -2.470867
     56          9           0        4.031168   -0.583317    3.137517
     57          9           0        6.589142   -0.732885    3.995271
     58          9           0        8.650251   -0.514816    2.213041
     59          9           0        8.125214   -0.144095   -0.443618
     60          9           0        5.572734    0.001943   -1.316060
     61          9           0        0.449803    4.420143   -3.068488
     62          9           0        0.512316    7.079743   -3.526842
     63          9           0        0.140267    8.838895   -1.467789
     64          9           0       -0.286258    7.904760    1.065545
     65          9           0       -0.334603    5.249126    1.543963
     66          9           0       -5.563567    0.061257   -1.387484
     67          9           0       -8.129804   -0.039937   -0.549818
     68          9           0       -8.697205   -0.364667    2.104161
     69          9           0       -6.664536   -0.582251    3.918856
     70          9           0       -4.092936   -0.477844    3.095802
     71          1           0        3.129737   -7.991578   -2.188793
     72          1           0       -3.243635   -7.948231   -2.191159
     73          8           0       -0.031178   -4.267341   -2.244263
     74          6           0        2.311906   -5.917169   -1.850973
     75          6           0       -2.397823   -5.884800   -1.855010
     76          6           0       -4.269378   -6.572069   -0.835926
     77          1           0       -5.149238   -7.038172   -0.418950
     78          6           0        4.164546   -6.636343   -0.819438
     79          1           0        5.033849   -7.117223   -0.397132
     80          8           0       -4.023503   -5.296352   -0.428240
     81          8           0        3.934281   -5.358782   -0.408441
 ---------------------------------------------------------------------

 The electronic state is 1-A.
 Alpha  occ. eigenvalues --  -24.70024 -24.69789 -24.69780 -24.69424 -24.69356
 Alpha  occ. eigenvalues --  -24.69165 -24.69158 -24.69145 -24.69134 -24.68205
 Alpha  occ. eigenvalues --  -24.68087 -24.67973 -24.67970 -24.67943 -24.67930
 Alpha  occ. eigenvalues --  -19.13496 -19.13491 -19.03147 -14.27308 -14.27297
 Alpha  occ. eigenvalues --  -14.27106 -14.27092 -10.26159 -10.25945 -10.25936
 Alpha  occ. eigenvalues --  -10.25463 -10.25427 -10.25237 -10.25228 -10.25222
 Alpha  occ. eigenvalues --  -10.25212 -10.25125 -10.25088 -10.24980 -10.24971
 Alpha  occ. eigenvalues --  -10.24967 -10.24955 -10.17921 -10.17793 -10.17781
 Alpha  occ. eigenvalues --  -10.17537 -10.16417 -10.16413 -10.16295 -10.16290
 Alpha  occ. eigenvalues --  -10.15513 -10.15497 -10.14942 -10.14926 -10.14317
 Alpha  occ. eigenvalues --  -10.14298 -10.14095 -10.14086 -10.13747 -10.13736
 Alpha  occ. eigenvalues --  -10.13269 -10.12172 -10.12150 -10.11881 -10.11869
 Alpha  occ. eigenvalues --  -10.11794 -10.11786 -10.11223 -10.11219 -10.10040
 Alpha  occ. eigenvalues --  -10.10029 -10.09912 -10.09905  -3.95839  -2.57630
 Alpha  occ. eigenvalues --   -2.57574  -2.51839  -1.22014  -1.21786  -1.21777
 Alpha  occ. eigenvalues --   -1.20961  -1.20742  -1.20733  -1.20386  -1.20171
 Alpha  occ. eigenvalues --   -1.20162  -1.19264  -1.19169  -1.19059  -1.19051
 Alpha  occ. eigenvalues --   -1.18999  -1.18990  -1.03098  -1.03093  -0.93284
 Alpha  occ. eigenvalues --   -0.89548  -0.88577  -0.88086  -0.87366  -0.85430
 Alpha  occ. eigenvalues --   -0.85270  -0.85251  -0.77641  -0.76688  -0.76106
 Alpha  occ. eigenvalues --   -0.73123  -0.72938  -0.72928  -0.72234  -0.72228
 Alpha  occ. eigenvalues --   -0.71954  -0.71845  -0.71588  -0.70560  -0.70427
 Alpha  occ. eigenvalues --   -0.69750  -0.69450  -0.66054  -0.65809  -0.64773
 Alpha  occ. eigenvalues --   -0.63883  -0.62381  -0.62253  -0.61398  -0.61224
 Alpha  occ. eigenvalues --   -0.61215  -0.60482  -0.58081  -0.57612  -0.54917
 Alpha  occ. eigenvalues --   -0.54647  -0.54612  -0.54109  -0.53963  -0.53928
 Alpha  occ. eigenvalues --   -0.53649  -0.53300  -0.53219  -0.52824  -0.52712
 Alpha  occ. eigenvalues --   -0.52564  -0.51443  -0.50484  -0.50426  -0.49890
 Alpha  occ. eigenvalues --   -0.49689  -0.49681  -0.49619  -0.49371  -0.49209
 Alpha  occ. eigenvalues --   -0.48683  -0.48217  -0.47644  -0.47564  -0.47482
 Alpha  occ. eigenvalues --   -0.47448  -0.47095  -0.46661  -0.46596  -0.46536
 Alpha  occ. eigenvalues --   -0.46527  -0.46196  -0.45928  -0.45339  -0.44725
 Alpha  occ. eigenvalues --   -0.44500  -0.44490  -0.44048  -0.43794  -0.43312
 Alpha  occ. eigenvalues --   -0.43262  -0.42974  -0.41772  -0.41678  -0.41535
 Alpha  occ. eigenvalues --   -0.41499  -0.41488  -0.41477  -0.40855  -0.40762
 Alpha  occ. eigenvalues --   -0.39697  -0.39665  -0.39435  -0.39425  -0.39345
 Alpha  occ. eigenvalues --   -0.39182  -0.38924  -0.37793  -0.37743  -0.37581
 Alpha  occ. eigenvalues --   -0.37556  -0.37454  -0.36644  -0.36459  -0.36448
 Alpha  occ. eigenvalues --   -0.36314  -0.35946  -0.35794  -0.35462  -0.34985
 Alpha  occ. eigenvalues --   -0.34724  -0.34411  -0.34130  -0.33863  -0.33821
 Alpha  occ. eigenvalues --   -0.33653  -0.33513  -0.33340  -0.33020  -0.32839
 Alpha  occ. eigenvalues --   -0.32338  -0.32271  -0.31912  -0.31695  -0.31448
 Alpha  occ. eigenvalues --   -0.31119  -0.30918  -0.30849  -0.30517  -0.30418
 Alpha  occ. eigenvalues --   -0.29997  -0.29520  -0.29107  -0.28964  -0.27948
 Alpha  occ. eigenvalues --   -0.27422  -0.25128  -0.25015  -0.23994  -0.23774
 Alpha  occ. eigenvalues --   -0.21931  -0.21867  -0.21713  -0.21548  -0.21483
 Alpha  occ. eigenvalues --   -0.21253  -0.20995  -0.20778  -0.20769  -0.20449
 Alpha  occ. eigenvalues --   -0.20270  -0.20055  -0.18728  -0.17546  -0.16908
 Alpha  occ. eigenvalues --   -0.16503  -0.16409  -0.16293  -0.13833  -0.12696
 Alpha  occ. eigenvalues --   -0.11282  -0.09848
 Alpha virt. eigenvalues --   -0.01719   0.00332   0.01712   0.02012   0.02092
 Alpha virt. eigenvalues --    0.02241   0.02294   0.02415   0.02423   0.03103
 Alpha virt. eigenvalues --    0.03303   0.03322   0.03748   0.06799   0.07219

 Mulliken charges:
               1
     1  C    0.009193
     2  C    0.164545
     3  C   -0.040968
     4  C    0.265691
     5  C   -0.044191
     6  C   -0.037167
     7  C   -0.009204
     8  C    0.172104
     9  C   -0.166747
    10  C   -0.061819
    11  C   -0.413372
    12  C    0.289075
    13  H    0.127060
    14  H    0.114838
    15  H    0.116830
    16  N    0.539452
    17  N    0.534179
    18  N    0.327422
    19  N    0.331127
    20  C   -0.164226
    21  H    0.114379
    22  C   -0.403787
    23  H    0.126891
    24  C   -0.046546
    25  C   -0.036382
    26  H    0.116912
    27  C    0.117975
    28  C    0.268464
    29  C    0.265544
    30  C    0.009606
    31  C   -0.795499
    32  C    0.165431
    33  C    0.296090
    34  C    0.235349
    35  C    0.293896
    36  C    0.522909
    37  C   -0.637909
    38  C    0.176247
    39  C   -0.003302
    40  C    0.328568
    41  C    0.299979
    42  C    0.485853
    43  C   -0.777192
    44  C    0.167487
    45  C    0.277224
    46  C    0.232070
    47  C    0.295453
    48  C    0.521794
    49  Ni  -0.494103
    50  C    0.103626
    51  C   -0.350014
    52  H    0.169808
    53  C    0.104354
    54  C   -0.347237
    55  H    0.169706
    56  F   -0.280002
    57  F   -0.353828
    58  F   -0.351711
    59  F   -0.351202
    60  F   -0.272986
    61  F   -0.277776
    62  F   -0.355928
    63  F   -0.351829
    64  F   -0.354006
    65  F   -0.277393
    66  F   -0.271689
    67  F   -0.351052
    68  F   -0.351684
    69  F   -0.353832
    70  F   -0.280169
    71  H    0.122740
    72  H    0.122722
    73  O   -0.566352
    74  C    0.063104
    75  C    0.069345
    76  C    0.150347
    77  H    0.124150
    78  C    0.148926
    79  H    0.124178
    80  O   -0.275665
    81  O   -0.275868
 Sum of Mulliken charges =  -1.00000

 Dipole moment (field-independent basis, Debye):
    X=              0.0243    Y=              3.6362    Z=              1.7527  Tot=              4.0366
 Quadrupole moment (field-independent basis, Debye-Ang):
   XX=           -468.5846   YY=           -455.7030   ZZ=           -431.4802
   XY=             -0.0189   XZ=              1.5730   YZ=             -1.7621

 Normal termination of Gaussian 16 at Sat Nov 20 09:02:04 2021.
