 Gaussian 16, Revision C.01,
 Gaussian 16:  ES64L-G16RevC.01  3-Jul-2019

 ----------------------------------------------------
 # opt b3lyp/genecp geom=connectivity scf=maxcyc=1000
 ----------------------------------------------------

 -----
 title
 -----
 Symbolic Z-matrix:
 Charge = -1 Multiplicity = 1

 SCF Done:  E(RB3LYP) =  -4517.67443634     A.U. after   25 cycles
 SCF Done:  E(RB3LYP) =  -4517.73649851     A.U. after   53 cycles
 SCF Done:  E(RB3LYP) =  -4517.75517410     A.U. after   28 cycles
 SCF Done:  E(RB3LYP) =  -4517.79407788     A.U. after   28 cycles
 SCF Done:  E(RB3LYP) =  -4517.79983776     A.U. after   43 cycles
 SCF Done:  E(RB3LYP) =  -4517.80072318     A.U. after   23 cycles
 SCF Done:  E(RB3LYP) =  -4517.80129765     A.U. after   18 cycles
 SCF Done:  E(RB3LYP) =  -4517.80133889     A.U. after   17 cycles
 SCF Done:  E(RB3LYP) =  -4517.80146405     A.U. after   17 cycles
 SCF Done:  E(RB3LYP) =  -4517.80147684     A.U. after   16 cycles
 SCF Done:  E(RB3LYP) =  -4517.80150505     A.U. after   16 cycles
 SCF Done:  E(RB3LYP) =  -4517.80150957     A.U. after   16 cycles
 SCF Done:  E(RB3LYP) =  -4517.80151113     A.U. after   15 cycles
 SCF Done:  E(RB3LYP) =  -4517.80151164     A.U. after   14 cycles
 SCF Done:  E(RB3LYP) =  -4517.80151173     A.U. after   12 cycles
 SCF Done:  E(RB3LYP) =  -4517.80151180     A.U. after   12 cycles
 SCF Done:  E(RB3LYP) =  -4517.80151180     A.U. after   13 cycles
 SCF Done:  E(RB3LYP) =  -4517.80151181     A.U. after   12 cycles
 SCF Done:  E(RB3LYP) =  -4517.80151182     A.U. after   11 cycles
 SCF Done:  E(RB3LYP) =  -4517.80151183     A.U. after   11 cycles
 Optimization completed.
    -- Stationary point found.

                         Standard orientation:
 ---------------------------------------------------------------------
 Center     Atomic      Atomic             Coordinates (Angstroms)
 Number     Number       Type             X           Y           Z
 ---------------------------------------------------------------------
      1          6           0       -1.271953   -2.548973   -0.929768
      2          6           0        1.256800    2.785397   -0.323502
      3          6           0        3.412707    2.474520    0.265326
      4          6           0        2.708389    1.217316    0.221444
      5          6           0        2.640684   -1.235986    0.059878
      6          6           0        2.402634   -3.353888   -0.715711
      7          6           0        1.203785   -2.580316   -0.922589
      8          6           0       -1.190780    2.821200   -0.332691
      9          6           0       -2.453461    3.503769   -0.160313
     10          6           0       -2.682816   -1.165834    0.036399
     11          6           0       -3.351673   -2.407260   -0.088932
     12          6           0       -2.689278    1.289297    0.189483
     13          1           0       -4.375447   -2.603323    0.197023
     14          1           0       -2.610446    4.567691   -0.269041
     15          1           0        4.455005    2.598826    0.524682
     16          7           0        1.350467   -1.317025   -0.425210
     17          7           0       -1.390949   -1.280730   -0.437300
     18          7           0        1.387729    1.434069   -0.140936
     19          7           0       -1.357109    1.473094   -0.147057
     20          6           0        2.529451    3.438996   -0.115805
     21          1           0        2.708661    4.501298   -0.206827
     22          6           0        3.279607   -2.493172   -0.064910
     23          1           0        4.296087   -2.715323    0.227926
     24          6           0       -2.491051   -3.291879   -0.729506
     25          6           0       -3.365466    2.562577    0.209947
     26          1           0       -4.410322    2.712085    0.444431
     27          6           0       -0.038752   -3.065177   -1.504689
     28          6           0       -3.296490    0.058014    0.372767
     29          6           0        3.281427   -0.029684    0.408881
     30          6           0        0.043055    3.457762   -0.514797
     31          6           0        4.696293   -0.106672    0.885348
     32          6           0        5.785122   -0.008903    0.011357
     33          6           0        4.997778   -0.297888    2.238705
     34          6           0        7.104939   -0.090336    0.452694
     35          6           0        6.308306   -0.384486    2.705851
     36          6           0        7.366321   -0.279819    1.807004
     37          6           0        0.073881    4.929625   -0.757558
     38          6           0        0.298104    5.451933   -2.038478
     39          6           0       -0.105474    5.867446    0.268014
     40          6           0        0.339771    6.821984   -2.292994
     41          6           0       -0.072906    7.242365    0.040834
     42          6           0        0.151314    7.721237   -1.247112
     43          6           0       -4.719644    0.019723    0.829171
     44          6           0       -5.793120    0.124780   -0.062745
     45          6           0       -5.045019   -0.140021    2.181028
     46          6           0       -7.120720    0.079693    0.359993
     47          6           0       -6.363860   -0.190076    2.629858
     48          6           0       -7.406019   -0.079375    1.713407
     49         28           0       -0.002598    0.083057   -0.307063
     50          6           0       -2.822663   -4.685844   -1.014835
     51          6           0       -3.081062   -6.818489   -1.964787
     52          1           0       -1.758329   -5.231357   -2.801737
     53          6           0        2.702188   -4.754447   -1.004083
     54          6           0        2.915982   -6.888816   -1.961200
     55          1           0        1.638164   -5.266831   -2.800976
     56          9           0        4.008587   -0.399976    3.140951
     57          9           0        6.560438   -0.563638    4.014374
     58          9           0        8.633492   -0.358580    2.244666
     59          9           0        8.126804    0.012478   -0.415481
     60          9           0        5.580595    0.171764   -1.303681
     61          9           0        0.478462    4.624295   -3.080600
     62          9           0        0.554326    7.283771   -3.537828
     63          9           0        0.186761    9.043859   -1.478812
     64          9           0       -0.248686    8.110790    1.053402
     65          9           0       -0.310111    5.455206    1.530748
     66          9           0       -5.565407    0.278135   -1.377485
     67          9           0       -8.127260    0.188927   -0.525173
     68          9           0       -8.680914   -0.123029    2.133199
     69          9           0       -6.639008   -0.340178    3.937391
     70          9           0       -4.071631   -0.247246    3.099696
     71          1           0        2.729554   -7.671763   -2.688952
     72          1           0       -2.908300   -7.608805   -2.687933
     73          8           0       -0.047337   -3.942021   -2.389435
     74          6           0        2.325280   -5.591994   -2.033332
     75          6           0       -2.458599   -5.536646   -2.037819
     76          6           0       -3.920913   -6.952754   -0.889848
     77          1           0       -4.508773   -7.812406   -0.596825
     78         16           0       -3.954351   -5.505492    0.064125
     79         16           0        3.805558   -5.605680    0.079712
     80          6           0        3.744293   -7.047763   -0.880677
     81          1           0        4.308926   -7.922613   -0.586963
 ---------------------------------------------------------------------

 The electronic state is 1-A.
 Alpha  occ. eigenvalues --  -88.81758 -88.81753 -24.70094 -24.69871 -24.69862
 Alpha  occ. eigenvalues --  -24.69496 -24.69429 -24.69254 -24.69248 -24.69233
 Alpha  occ. eigenvalues --  -24.69223 -24.68287 -24.68171 -24.68088 -24.68084
 Alpha  occ. eigenvalues --  -24.68056 -24.68044 -19.03726 -14.27483 -14.27471
 Alpha  occ. eigenvalues --  -14.27240 -14.27225 -10.26236 -10.26047 -10.26039
 Alpha  occ. eigenvalues --  -10.25541 -10.25505 -10.25343 -10.25334 -10.25327
 Alpha  occ. eigenvalues --  -10.25317 -10.25208 -10.25170 -10.25097 -10.25088
 Alpha  occ. eigenvalues --  -10.25082 -10.25071 -10.18008 -10.17917 -10.17916
 Alpha  occ. eigenvalues --  -10.17904 -10.15650 -10.15633 -10.15089 -10.15072
 Alpha  occ. eigenvalues --  -10.14484 -10.14465 -10.14383 -10.14378 -10.14281
 Alpha  occ. eigenvalues --  -10.14272 -10.13898 -10.13888 -10.13809 -10.13804
 Alpha  occ. eigenvalues --  -10.13396 -10.12301 -10.12279 -10.12201 -10.12192
 Alpha  occ. eigenvalues --  -10.12006 -10.11995 -10.11731 -10.11726 -10.10428
 Alpha  occ. eigenvalues --  -10.10421 -10.10374 -10.10363  -7.89040  -7.89035
 Alpha  occ. eigenvalues --   -5.85390  -5.85385  -5.85027  -5.85022  -5.84684
 Alpha  occ. eigenvalues --   -5.84678  -3.95969  -2.57755  -2.57704  -2.51976
 Alpha  occ. eigenvalues --   -1.22087  -1.21879  -1.21870  -1.21037  -1.20841
 Alpha  occ. eigenvalues --   -1.20832  -1.20462  -1.20270  -1.20262  -1.19345
 Alpha  occ. eigenvalues --   -1.19250  -1.19170  -1.19163  -1.19107  -1.19097
 Alpha  occ. eigenvalues --   -0.93778  -0.89707  -0.88752  -0.88337  -0.87575
 Alpha  occ. eigenvalues --   -0.85514  -0.85379  -0.85363  -0.80242  -0.80235
 Alpha  occ. eigenvalues --   -0.77752  -0.76801  -0.76211  -0.73202  -0.73045
 Alpha  occ. eigenvalues --   -0.73036  -0.71867  -0.71327  -0.71171  -0.70690
 Alpha  occ. eigenvalues --   -0.70307  -0.69870  -0.69523  -0.66021  -0.65694
 Alpha  occ. eigenvalues --   -0.65476  -0.65311  -0.63799  -0.63180  -0.62444
 Alpha  occ. eigenvalues --   -0.62300  -0.61477  -0.61329  -0.61320  -0.60589
 Alpha  occ. eigenvalues --   -0.58104  -0.57705  -0.54996  -0.54742  -0.54701
 Alpha  occ. eigenvalues --   -0.54180  -0.54053  -0.54036  -0.53572  -0.53387
 Alpha  occ. eigenvalues --   -0.53059  -0.52806  -0.51749  -0.51266  -0.50457
 Alpha  occ. eigenvalues --   -0.49967  -0.49790  -0.49781  -0.49715  -0.49444
 Alpha  occ. eigenvalues --   -0.49346  -0.49293  -0.48968  -0.48041  -0.48026
 Alpha  occ. eigenvalues --   -0.47660  -0.47585  -0.47566  -0.47443  -0.46785
 Alpha  occ. eigenvalues --   -0.46715  -0.46646  -0.46639  -0.46162  -0.45444
 Alpha  occ. eigenvalues --   -0.44804  -0.44600  -0.44590  -0.44189  -0.44050
 Alpha  occ. eigenvalues --   -0.43962  -0.43838  -0.43410  -0.43328  -0.43022
 Alpha  occ. eigenvalues --   -0.41841  -0.41755  -0.41620  -0.41596  -0.41581
 Alpha  occ. eigenvalues --   -0.41572  -0.39885  -0.39741  -0.39558  -0.39519
 Alpha  occ. eigenvalues --   -0.39510  -0.39439  -0.39302  -0.39270  -0.39027
 Alpha  occ. eigenvalues --   -0.37773  -0.37700  -0.37431  -0.36721  -0.36562
 Alpha  occ. eigenvalues --   -0.36547  -0.36378  -0.35703  -0.35131  -0.34953
 Alpha  occ. eigenvalues --   -0.34799  -0.34756  -0.34339  -0.34077  -0.33908
 Alpha  occ. eigenvalues --   -0.33752  -0.33675  -0.33347  -0.33093  -0.32867
 Alpha  occ. eigenvalues --   -0.32459  -0.32383  -0.32184  -0.32102  -0.31655
 Alpha  occ. eigenvalues --   -0.31303  -0.30999  -0.30753  -0.30698  -0.30497
 Alpha  occ. eigenvalues --   -0.30107  -0.29999  -0.29934  -0.29657  -0.29580
 Alpha  occ. eigenvalues --   -0.28268  -0.27567  -0.26338  -0.26250  -0.25070
 Alpha  occ. eigenvalues --   -0.25065  -0.24161  -0.23860  -0.22006  -0.21710
 Alpha  occ. eigenvalues --   -0.21669  -0.21572  -0.21520  -0.21370  -0.21060
 Alpha  occ. eigenvalues --   -0.20883  -0.20871  -0.20077  -0.18763  -0.17845
 Alpha  occ. eigenvalues --   -0.17641  -0.17548  -0.17051  -0.16759  -0.16641
 Alpha  occ. eigenvalues --   -0.16387  -0.14184  -0.13361  -0.11677  -0.10017
 Alpha virt. eigenvalues --   -0.01891   0.00238   0.01617   0.01923   0.02013
 Alpha virt. eigenvalues --    0.02125   0.02185   0.02325   0.02333   0.03009
 Alpha virt. eigenvalues --    0.03049   0.03192   0.03328   0.05118   0.06767

 Mulliken charges:
               1
     1  C    0.075800
     2  C    0.146156
     3  C   -0.088564
     4  C    0.282946
     5  C   -0.060975
     6  C    0.376455
     7  C    0.055578
     8  C    0.158088
     9  C   -0.186286
    10  C   -0.066040
    11  C   -0.532343
    12  C    0.302601
    13  H    0.120381
    14  H    0.115123
    15  H    0.117264
    16  N    0.586648
    17  N    0.583160
    18  N    0.335813
    19  N    0.337861
    20  C   -0.191558
    21  H    0.114639
    22  C   -0.519260
    23  H    0.120348
    24  C    0.359997
    25  C   -0.085100
    26  H    0.117307
    27  C    0.139636
    28  C    0.210794
    29  C    0.209164
    30  C    0.026440
    31  C   -0.810416
    32  C    0.141914
    33  C    0.261808
    34  C    0.250850
    35  C    0.314786
    36  C    0.496857
    37  C   -0.635907
    38  C    0.181170
    39  C    0.012296
    40  C    0.321762
    41  C    0.297849
    42  C    0.490370
    43  C   -0.794058
    44  C    0.140209
    45  C    0.245670
    46  C    0.249120
    47  C    0.317764
    48  C    0.494428
    49  Ni  -0.454204
    50  C   -0.458245
    51  C   -0.290587
    52  H    0.167020
    53  C   -0.465121
    54  C   -0.289507
    55  H    0.166899
    56  F   -0.276674
    57  F   -0.352552
    58  F   -0.351262
    59  F   -0.351453
    60  F   -0.270810
    61  F   -0.277341
    62  F   -0.355756
    63  F   -0.351545
    64  F   -0.353773
    65  F   -0.277526
    66  F   -0.269620
    67  F   -0.351374
    68  F   -0.351219
    69  F   -0.352684
    70  F   -0.277136
    71  H    0.120262
    72  H    0.120253
    73  O   -0.535289
    74  C    0.229499
    75  C    0.238554
    76  C   -0.095957
    77  H    0.141773
    78  S    0.019997
    79  S    0.021836
    80  C   -0.096780
    81  H    0.141777
 Sum of Mulliken charges =  -1.00000

 Dipole moment (field-independent basis, Debye):
    X=              0.0389    Y=              3.4596    Z=              1.5416  Tot=              3.7877
 Quadrupole moment (field-independent basis, Debye-Ang):
   XX=           -488.1839   YY=           -475.3446   ZZ=           -445.3091
   XY=              0.0224   XZ=              1.5892   YZ=             -0.0291

 Normal termination of Gaussian 16 at Wed Oct 20 23:25:15 2021.
