 Gaussian 16, Revision C.01,
 Gaussian 16:  ES64L-G16RevC.01  3-Jul-2019

 ----------------------------------------------------
 # opt b3lyp/genecp geom=connectivity scf=maxcyc=1000
 ----------------------------------------------------

 -----
 title
 -----
 Symbolic Z-matrix:
 Charge = -1 Multiplicity = 1

 SCF Done:  E(RB3LYP) =  -3831.66721945     A.U. after   25 cycles
 SCF Done:  E(RB3LYP) =  -3831.75823022     A.U. after   19 cycles
 SCF Done:  E(RB3LYP) =  -3831.86292925     A.U. after  164 cycles
 SCF Done:  E(RB3LYP) =  -3831.87649027     A.U. after   38 cycles
 SCF Done:  E(RB3LYP) =  -3832.00641716     A.U. after   30 cycles
 SCF Done:  E(RB3LYP) =  -3831.83041292     A.U. after   28 cycles
 SCF Done:  E(RB3LYP) =  -3832.08027757     A.U. after   23 cycles
 SCF Done:  E(RB3LYP) =  -3832.13420618     A.U. after   52 cycles
 SCF Done:  E(RB3LYP) =  -3832.14766322     A.U. after   23 cycles
 SCF Done:  E(RB3LYP) =  -3832.15599516     A.U. after   23 cycles
 SCF Done:  E(RB3LYP) =  -3832.17007422     A.U. after   14 cycles
 SCF Done:  E(RB3LYP) =  -3832.17007649     A.U. after   16 cycles
 SCF Done:  E(RB3LYP) =  -3832.17007800     A.U. after   15 cycles
 SCF Done:  E(RB3LYP) =  -3832.17007867     A.U. after   14 cycles
 SCF Done:  E(RB3LYP) =  -3832.17007882     A.U. after   13 cycles
 SCF Done:  E(RB3LYP) =  -3832.17007888     A.U. after   12 cycles
 SCF Done:  E(RB3LYP) =  -3832.17007892     A.U. after   12 cycles
 SCF Done:  E(RB3LYP) =  -3832.17007894     A.U. after   12 cycles
 SCF Done:  E(RB3LYP) =  -3832.17007895     A.U. after   12 cycles
 SCF Done:  E(RB3LYP) =  -3832.17007895     A.U. after   11 cycles
 Optimization completed.
    -- Stationary point found.

                         Standard orientation:
 ---------------------------------------------------------------------
 Center     Atomic      Atomic             Coordinates (Angstroms)
 Number     Number       Type             X           Y           Z
 ---------------------------------------------------------------------
      1          6           0       -1.257016   -2.788075   -0.826946
      2          6           0        1.235809    2.590715   -0.321387
      3          6           0        3.393556    2.306140    0.268360
      4          6           0        2.696190    1.044244    0.248996
      5          6           0        2.649710   -1.410854    0.112423
      6          6           0        2.462168   -3.539267   -0.649628
      7          6           0        1.221464   -2.802495   -0.822043
      8          6           0       -1.209257    2.608315   -0.328331
      9          6           0       -2.473556    3.286951   -0.161387
     10          6           0       -2.674604   -1.378003    0.096030
     11          6           0       -3.359890   -2.610149   -0.042935
     12          6           0       -2.693137    1.078087    0.226170
     13          1           0       -4.393471   -2.786038    0.216591
     14          1           0       -2.636051    4.348252   -0.286964
     15          1           0        4.435459    2.441961    0.522840
     16          7           0        1.352648   -1.523324   -0.338309
     17          7           0       -1.376267   -1.506346   -0.346682
     18          7           0        1.375346    1.242661   -0.111177
     19          7           0       -1.365623    1.261655   -0.116151
     20          6           0        2.503262    3.256970   -0.130339
     21          1           0        2.675128    4.318270   -0.244132
     22          6           0        3.321901   -2.650233   -0.026220
     23          1           0        4.352114   -2.838215    0.238181
     24          6           0       -2.506712   -3.510445   -0.659164
     25          6           0       -3.378270    2.346918    0.229567
     26          1           0       -4.422658    2.493920    0.467021
     27          6           0       -0.019897   -3.330665   -1.335143
     28          6           0       -3.293249   -0.155736    0.423405
     29          6           0        3.279982   -0.197001    0.448841
     30          6           0        0.018360    3.249850   -0.523114
     31          6           0        4.698928   -0.255050    0.915863
     32          6           0        5.781585   -0.120760    0.038957
     33          6           0        5.010890   -0.462324    2.264560
     34          6           0        7.104885   -0.182305    0.473063
     35          6           0        6.325068   -0.529649    2.724541
     36          6           0        7.376547   -0.388748    1.822901
     37          6           0        0.035458    4.717819   -0.794408
     38          6           0        0.187055    5.215975   -2.094900
     39          6           0       -0.089325    5.672486    0.223059
     40          6           0        0.212019    6.581374   -2.375697
     41          6           0       -0.070378    7.043184   -0.029808
     42          6           0        0.081310    7.498794   -1.336743
     43          6           0       -4.717429   -0.195394    0.876530
     44          6           0       -5.789794   -0.061520   -0.012955
     45          6           0       -5.044955   -0.383739    2.224270
     46          6           0       -7.117945   -0.105797    0.408194
     47          6           0       -6.364325   -0.433652    2.671495
     48          6           0       -7.405218   -0.293791    1.757508
     49         28           0       -0.003605   -0.129550   -0.243761
     50          6           0       -2.909662   -4.877221   -0.963347
     51          6           0       -4.017156   -6.858739   -1.108562
     52          1           0       -4.733240   -5.223691    0.240084
     53          6           0        2.851686   -4.909441   -0.955914
     54          6           0        3.938704   -6.902158   -1.102541
     55          1           0        4.666932   -5.278624    0.253422
     56          9           0        4.028251   -0.598238    3.169486
     57          9           0        6.586852   -0.724724    4.028802
     58          9           0        8.647016   -0.448561    2.253633
     59          9           0        8.120171   -0.045096   -0.397890
     60          9           0        5.567361    0.075558   -1.272341
     61          9           0        0.312117    4.369151   -3.129448
     62          9           0        0.357213    7.020887   -3.638163
     63          9           0        0.102230    8.816787   -1.593411
     64          9           0       -0.192459    7.929296    0.974926
     65          9           0       -0.227907    5.281360    1.501203
     66          9           0       -5.560384    0.118039   -1.324119
     67          9           0       -8.123011    0.030741   -0.474660
     68          9           0       -8.680511   -0.336882    2.175802
     69          9           0       -6.641154   -0.611143    3.975154
     70          9           0       -4.072852   -0.518313    3.140691
     71          1           0        4.645931   -7.707118   -0.952844
     72          1           0       -4.733429   -7.655743   -0.959303
     73          8           0       -0.024140   -4.315743   -2.142966
     74          6           0        3.951598   -5.630007   -0.477335
     75          6           0       -4.018984   -5.584711   -0.487022
     76          6           0       -2.910613   -6.901645   -1.947384
     77          1           0       -2.542106   -7.687285   -2.591291
     78          6           0        2.835020   -6.930953   -1.945743
     79          1           0        2.460702   -7.710840   -2.593282
     80          7           0       -2.262970   -5.703794   -1.851373
     81          1           0       -1.379472   -5.396262   -2.267770
     82          7           0        2.199765   -5.726571   -1.848846
     83          1           0        1.320785   -5.408753   -2.267163
 ---------------------------------------------------------------------

 The electronic state is 1-A.
 Alpha  occ. eigenvalues --  -24.70304 -24.69985 -24.69980 -24.69710 -24.69642
 Alpha  occ. eigenvalues --  -24.69368 -24.69365 -24.69352 -24.69346 -24.68540
 Alpha  occ. eigenvalues --  -24.68423 -24.68216 -24.68215 -24.68181 -24.68175
 Alpha  occ. eigenvalues --  -19.04771 -14.28360 -14.28360 -14.27590 -14.27584
 Alpha  occ. eigenvalues --  -14.27496 -14.27488 -10.26479 -10.26170 -10.26166
 Alpha  occ. eigenvalues --  -10.25777 -10.25742 -10.25471 -10.25469 -10.25464
 Alpha  occ. eigenvalues --  -10.25453 -10.25448 -10.25435 -10.25220 -10.25215
 Alpha  occ. eigenvalues --  -10.25205 -10.25199 -10.18650 -10.18271 -10.18047
 Alpha  occ. eigenvalues --  -10.18039 -10.15854 -10.15841 -10.15372 -10.15363
 Alpha  occ. eigenvalues --  -10.14608 -10.14601 -10.14562 -10.14555 -10.14368
 Alpha  occ. eigenvalues --  -10.14362 -10.13850 -10.13271 -10.13270 -10.12723
 Alpha  occ. eigenvalues --  -10.12722 -10.12494 -10.12482 -10.12276 -10.12271
 Alpha  occ. eigenvalues --  -10.12231 -10.12227 -10.10146 -10.10141 -10.09472
 Alpha  occ. eigenvalues --  -10.09470 -10.09120 -10.09118  -3.96189  -2.57977
 Alpha  occ. eigenvalues --   -2.57920  -2.52193  -1.22310  -1.21997  -1.21993
 Alpha  occ. eigenvalues --   -1.21265  -1.20962  -1.20958  -1.20692  -1.20391
 Alpha  occ. eigenvalues --   -1.20387  -1.19593  -1.19497  -1.19296  -1.19292
 Alpha  occ. eigenvalues --   -1.19231  -1.19226  -0.94356  -0.89969  -0.89361
 Alpha  occ. eigenvalues --   -0.89103  -0.88886  -0.88404  -0.87598  -0.85763
 Alpha  occ. eigenvalues --   -0.85514  -0.85490  -0.77994  -0.76952  -0.76439
 Alpha  occ. eigenvalues --   -0.73448  -0.73169  -0.73165  -0.72100  -0.71526
 Alpha  occ. eigenvalues --   -0.71377  -0.70956  -0.70509  -0.70085  -0.69854
 Alpha  occ. eigenvalues --   -0.68946  -0.68878  -0.66353  -0.65494  -0.63504
 Alpha  occ. eigenvalues --   -0.62927  -0.62593  -0.62393  -0.61722  -0.61453
 Alpha  occ. eigenvalues --   -0.61446  -0.60822  -0.58330  -0.58060  -0.55222
 Alpha  occ. eigenvalues --   -0.54894  -0.54820  -0.54426  -0.54174  -0.54167
 Alpha  occ. eigenvalues --   -0.53618  -0.53430  -0.53130  -0.52983  -0.52295
 Alpha  occ. eigenvalues --   -0.51139  -0.50971  -0.50572  -0.50202  -0.49948
 Alpha  occ. eigenvalues --   -0.49910  -0.49905  -0.49855  -0.49473  -0.49447
 Alpha  occ. eigenvalues --   -0.49133  -0.49036  -0.48260  -0.48150  -0.47888
 Alpha  occ. eigenvalues --   -0.47703  -0.47685  -0.47291  -0.47009  -0.46786
 Alpha  occ. eigenvalues --   -0.46769  -0.46718  -0.45914  -0.45626  -0.45030
 Alpha  occ. eigenvalues --   -0.44724  -0.44718  -0.44422  -0.44121  -0.43658
 Alpha  occ. eigenvalues --   -0.43495  -0.43274  -0.42072  -0.41986  -0.41749
 Alpha  occ. eigenvalues --   -0.41721  -0.41707  -0.41702  -0.40614  -0.40198
 Alpha  occ. eigenvalues --   -0.39951  -0.39867  -0.39652  -0.39631  -0.39626
 Alpha  occ. eigenvalues --   -0.39403  -0.39243  -0.38114  -0.37972  -0.37804
 Alpha  occ. eigenvalues --   -0.37457  -0.36956  -0.36674  -0.36669  -0.36018
 Alpha  occ. eigenvalues --   -0.35692  -0.35374  -0.35351  -0.35150  -0.35003
 Alpha  occ. eigenvalues --   -0.34504  -0.34402  -0.34154  -0.33950  -0.33873
 Alpha  occ. eigenvalues --   -0.33830  -0.33435  -0.33146  -0.32910  -0.32737
 Alpha  occ. eigenvalues --   -0.32573  -0.32369  -0.32010  -0.31859  -0.31355
 Alpha  occ. eigenvalues --   -0.31238  -0.30960  -0.30924  -0.30786  -0.30479
 Alpha  occ. eigenvalues --   -0.30396  -0.30074  -0.29819  -0.29370  -0.28740
 Alpha  occ. eigenvalues --   -0.27580  -0.25369  -0.25226  -0.24441  -0.24111
 Alpha  occ. eigenvalues --   -0.22240  -0.21900  -0.21840  -0.21744  -0.21718
 Alpha  occ. eigenvalues --   -0.21479  -0.21284  -0.21010  -0.21000  -0.20110
 Alpha  occ. eigenvalues --   -0.18748  -0.18588  -0.18147  -0.16939  -0.16846
 Alpha  occ. eigenvalues --   -0.16641  -0.16576  -0.16536  -0.13619  -0.11643
 Alpha  occ. eigenvalues --   -0.10665  -0.10568
 Alpha virt. eigenvalues --   -0.02043  -0.00338   0.01418   0.01665   0.01820
 Alpha virt. eigenvalues --    0.01987   0.02047   0.02205   0.02212   0.02790
 Alpha virt. eigenvalues --    0.03060   0.03090   0.03766   0.07007   0.07195

 Mulliken charges:
               1
     1  C   -0.205009
     2  C    0.133338
     3  C   -0.061730
     4  C    0.243164
     5  C   -0.221299
     6  C    0.336395
     7  C   -0.225081
     8  C    0.145492
     9  C   -0.187920
    10  C   -0.232886
    11  C   -0.430213
    12  C    0.254307
    13  H    0.109874
    14  H    0.115928
    15  H    0.117911
    16  N    0.547563
    17  N    0.542801
    18  N    0.322555
    19  N    0.325483
    20  C   -0.186087
    21  H    0.115711
    22  C   -0.419970
    23  H    0.109784
    24  C    0.339791
    25  C   -0.065805
    26  H    0.117946
    27  C    0.423288
    28  C    0.149485
    29  C    0.146365
    30  C    0.090201
    31  C   -0.697386
    32  C    0.091375
    33  C    0.107208
    34  C    0.325710
    35  C    0.380323
    36  C    0.458021
    37  C   -0.671277
    38  C    0.186071
    39  C    0.037034
    40  C    0.323857
    41  C    0.277358
    42  C    0.492185
    43  C   -0.691621
    44  C    0.092811
    45  C    0.097006
    46  C    0.325153
    47  C    0.382122
    48  C    0.456369
    49  Ni  -0.484937
    50  C   -0.016056
    51  C   -0.222196
    52  H    0.103061
    53  C   -0.021413
    54  C   -0.222310
    55  H    0.103023
    56  F   -0.272597
    57  F   -0.354684
    58  F   -0.351051
    59  F   -0.353036
    60  F   -0.271496
    61  F   -0.278240
    62  F   -0.355418
    63  F   -0.350768
    64  F   -0.352991
    65  F   -0.275034
    66  F   -0.270631
    67  F   -0.352902
    68  F   -0.350997
    69  F   -0.354726
    70  F   -0.273066
    71  H    0.106402
    72  H    0.106392
    73  O   -0.687740
    74  C    0.150127
    75  C    0.150221
    76  C   -0.073668
    77  H    0.115710
    78  C   -0.074168
    79  H    0.115712
    80  N   -0.243089
    81  H    0.365832
    82  N   -0.242783
    83  H    0.365821
 Sum of Mulliken charges =  -1.00000

 Dipole moment (field-independent basis, Debye):
    X=              0.0302    Y=              6.3399    Z=              1.3534  Tot=              6.4828
 Quadrupole moment (field-independent basis, Debye-Ang):
   XX=           -478.4870   YY=           -480.1289   ZZ=           -430.5035
   XY=             -0.0750   XZ=              1.0894   YZ=              0.4698

 Normal termination of Gaussian 16 at Sat Nov 20 16:50:47 2021.
