 Gaussian 16, Revision C.01,
 Gaussian 16:  ES64L-G16RevC.01  3-Jul-2019

 ----------------------------------------------------
 # opt b3lyp/genecp geom=connectivity scf=maxcyc=1000
 ----------------------------------------------------

 -----
 title
 -----
 Symbolic Z-matrix:
 Charge = -1 Multiplicity = 1

 SCF Done:  E(RB3LYP) =  -3981.89867070     A.U. after   24 cycles
 SCF Done:  E(RB3LYP) =  -3981.95862968     A.U. after   23 cycles
 SCF Done:  E(RB3LYP) =  -3981.96297195     A.U. after  112 cycles
 SCF Done:  E(RB3LYP) =  -3982.02215484     A.U. after  867 cycles
 SCF Done:  E(RB3LYP) =  -3982.02402355     A.U. after   52 cycles
 SCF Done:  E(RB3LYP) =  -3982.03114961     A.U. after   23 cycles
 SCF Done:  E(RB3LYP) =  -3982.03096640     A.U. after   23 cycles
 SCF Done:  E(RB3LYP) =  -3982.03423006     A.U. after   19 cycles
 SCF Done:  E(RB3LYP) =  -3982.03419444     A.U. after   20 cycles
 SCF Done:  E(RB3LYP) =  -3982.03468018     A.U. after   18 cycles
 SCF Done:  E(RB3LYP) =  -3982.03490446     A.U. after   15 cycles
 SCF Done:  E(RB3LYP) =  -3982.03490986     A.U. after   15 cycles
 SCF Done:  E(RB3LYP) =  -3982.03491260     A.U. after   15 cycles
 SCF Done:  E(RB3LYP) =  -3982.03491340     A.U. after   15 cycles
 SCF Done:  E(RB3LYP) =  -3982.03491357     A.U. after   13 cycles
 SCF Done:  E(RB3LYP) =  -3982.03491369     A.U. after   12 cycles
 SCF Done:  E(RB3LYP) =  -3982.03491372     A.U. after   12 cycles
 SCF Done:  E(RB3LYP) =  -3982.03491374     A.U. after   12 cycles
 SCF Done:  E(RB3LYP) =  -3982.03491375     A.U. after   12 cycles
 SCF Done:  E(RB3LYP) =  -3982.03491376     A.U. after   11 cycles
 Optimization completed.
    -- Stationary point found.

                         Standard orientation:
 ---------------------------------------------------------------------
 Center     Atomic      Atomic             Coordinates (Angstroms)
 Number     Number       Type             X           Y           Z
 ---------------------------------------------------------------------
      1          6           0       -1.971367   -2.645535   -0.851177
      2          6           0        2.150144    1.671754   -0.251768
      3          6           0        4.124050    0.686312    0.211289
      4          6           0        3.066883   -0.289614    0.148305
      5          6           0        2.252179   -2.593458   -0.102330
      6          6           0        1.306213   -4.492472   -0.850793
      7          6           0        0.387724   -3.411283   -0.903244
      8          6           0       -0.163943    2.471067   -0.229114
      9          6           0       -1.145413    3.518222   -0.048082
     10          6           0       -2.869764   -0.836181    0.006907
     11          6           0       -3.914917   -1.775755   -0.135356
     12          6           0       -2.083151    1.486830    0.214513
     13          1           0       -4.954580   -1.630234    0.113294
     14          1           0       -0.949422    4.578683   -0.121343
     15          1           0        5.162869    0.470492    0.419223
     16          7           0        0.954630   -2.258061   -0.439423
     17          7           0       -1.669532   -1.386175   -0.402005
     18          7           0        1.859809    0.337819   -0.128640
     19          7           0       -0.752779    1.239919   -0.092187
     20          6           0        3.566460    1.894824   -0.076645
     21          1           0        4.059260    2.855439   -0.130928
     22          6           0        2.471417   -3.988989   -0.319496
     23          1           0        3.396205   -4.516445   -0.129678
     24          6           0       -3.375831   -2.920887   -0.707113
     25          6           0       -2.318561    2.909275    0.270604
     26          1           0       -3.267510    3.376791    0.493436
     27          6           0       -0.986492   -3.592589   -1.318429
     28          6           0       -3.061318    0.520026    0.345601
     29          6           0        3.248402   -1.660199    0.232737
     30          6           0        1.205783    2.696019   -0.389997
     31          6           0        4.602804   -2.184593    0.588927
     32          6           0        5.613333   -2.350312   -0.364995
     33          6           0        4.917868   -2.552442    1.902013
     34          6           0        6.872836   -2.850237   -0.037577
     35          6           0        6.168877   -3.055665    2.255811
     36          6           0        7.150590   -3.204479    1.279896
     37          6           0        1.694346    4.094697   -0.572091
     38          6           0        2.032960    4.590403   -1.838049
     39          6           0        1.851631    4.982082    0.500617
     40          6           0        2.498424    5.889848   -2.034338
     41          6           0        2.311724    6.287146    0.332563
     42          6           0        2.636796    6.742329   -0.942448
     43          6           0       -4.435716    0.941433    0.758204
     44          6           0       -5.384461    1.397742   -0.163678
     45          6           0       -4.844008    0.879322    2.095218
     46          6           0       -6.669995    1.779142    0.216816
     47          6           0       -6.123652    1.253294    2.502188
     48          6           0       -7.040443    1.704747    1.556805
     49         28           0        0.099368   -0.514895   -0.274537
     50          6           0       -4.216435   -4.086316   -0.984333
     51          6           0       -6.119925   -5.246964   -0.921851
     52          9           0        4.002950   -2.421878    2.875976
     53          9           0        6.437755   -3.394606    3.528976
     54          9           0        8.360559   -3.686254    1.608004
     55          9           0        7.821150   -2.993495   -0.980489
     56          9           0        5.389683   -2.024962   -1.648720
     57          9           0        1.911282    3.807152   -2.922096
     58          9           0        2.810648    6.329665   -3.266396
     59          9           0        3.082440    7.997271   -1.117720
     60          9           0        2.449871    7.109021    1.388816
     61          9           0        1.561750    4.585537    1.751520
     62          9           0       -5.070833    1.485128   -1.466873
     63          9           0       -7.554461    2.218507   -0.696036
     64          9           0       -8.275456    2.071394    1.936330
     65          9           0       -6.479617    1.185779    3.797109
     66          9           0       -3.990696    0.453148    3.040570
     67          1           0       -7.150785   -5.385641   -0.612923
     68          8           0       -1.319618   -4.608393   -1.970392
     69          6           0       -5.390557   -6.129190   -1.673212
     70          1           0       -5.699311   -7.087361   -2.070003
     71         16           0       -3.787809   -5.519257   -1.924037
     72          1           0        1.074981   -5.499784   -1.164614
     73          7           0       -5.463312   -4.110416   -0.543432
 ---------------------------------------------------------------------

 The electronic state is 1-A.
 Alpha  occ. eigenvalues --  -88.81637 -24.70106 -24.70052 -24.69599 -24.69501
 Alpha  occ. eigenvalues --  -24.69440 -24.69440 -24.69411 -24.68982 -24.68965
 Alpha  occ. eigenvalues --  -24.68291 -24.68241 -24.68203 -24.68185 -24.67834
 Alpha  occ. eigenvalues --  -24.67801 -19.02888 -14.27355 -14.27336 -14.27274
 Alpha  occ. eigenvalues --  -14.27217 -14.24851 -10.26254 -10.26222 -10.25762
 Alpha  occ. eigenvalues --  -10.25550 -10.25519 -10.25517 -10.25500 -10.25258
 Alpha  occ. eigenvalues --  -10.25243 -10.25214 -10.25182 -10.25058 -10.25044
 Alpha  occ. eigenvalues --  -10.24814 -10.24802 -10.18065 -10.18001 -10.17645
 Alpha  occ. eigenvalues --  -10.17132 -10.17098 -10.15657 -10.15608 -10.15038
 Alpha  occ. eigenvalues --  -10.15029 -10.14543 -10.14297 -10.14184 -10.14057
 Alpha  occ. eigenvalues --  -10.13659 -10.13625 -10.13323 -10.12837 -10.12807
 Alpha  occ. eigenvalues --  -10.12282 -10.12275 -10.12009 -10.11920 -10.11677
 Alpha  occ. eigenvalues --  -10.10477 -10.09869 -10.09866  -7.88711  -5.85053
 Alpha  occ. eigenvalues --   -5.84677  -5.84401  -3.95998  -2.57815  -2.57721
 Alpha  occ. eigenvalues --   -2.51971  -1.22098  -1.22057  -1.21604  -1.21045
 Alpha  occ. eigenvalues --   -1.21015  -1.20568  -1.20472  -1.20442  -1.19999
 Alpha  occ. eigenvalues --   -1.19351  -1.19331  -1.19269  -1.19263  -1.18906
 Alpha  occ. eigenvalues --   -1.18842  -0.92938  -0.89586  -0.88638  -0.88092
 Alpha  occ. eigenvalues --   -0.87671  -0.87156  -0.85563  -0.85492  -0.85107
 Alpha  occ. eigenvalues --   -0.77742  -0.76773  -0.76175  -0.73215  -0.73213
 Alpha  occ. eigenvalues --   -0.72769  -0.71809  -0.71522  -0.70860  -0.70694
 Alpha  occ. eigenvalues --   -0.70321  -0.69900  -0.69556  -0.68504  -0.65786
 Alpha  occ. eigenvalues --   -0.65043  -0.63952  -0.62488  -0.62250  -0.61498
 Alpha  occ. eigenvalues --   -0.61488  -0.61061  -0.60547  -0.58129  -0.57620
 Alpha  occ. eigenvalues --   -0.55016  -0.54856  -0.54484  -0.54214  -0.54177
 Alpha  occ. eigenvalues --   -0.53798  -0.53621  -0.53388  -0.52966  -0.52651
 Alpha  occ. eigenvalues --   -0.51976  -0.51112  -0.50158  -0.49979  -0.49961
 Alpha  occ. eigenvalues --   -0.49731  -0.49521  -0.49508  -0.49246  -0.48817
 Alpha  occ. eigenvalues --   -0.48449  -0.47749  -0.47692  -0.47638  -0.47307
 Alpha  occ. eigenvalues --   -0.47169  -0.46805  -0.46749  -0.46391  -0.46026
 Alpha  occ. eigenvalues --   -0.45472  -0.44813  -0.44777  -0.44422  -0.44323
 Alpha  occ. eigenvalues --   -0.43999  -0.43860  -0.43358  -0.43205  -0.43127
 Alpha  occ. eigenvalues --   -0.42741  -0.41836  -0.41780  -0.41762  -0.41722
 Alpha  occ. eigenvalues --   -0.41344  -0.41319  -0.39857  -0.39748  -0.39699
 Alpha  occ. eigenvalues --   -0.39474  -0.39380  -0.39249  -0.39211  -0.38872
 Alpha  occ. eigenvalues --   -0.37793  -0.37579  -0.37440  -0.36732  -0.36722
 Alpha  occ. eigenvalues --   -0.36296  -0.35875  -0.35663  -0.35166  -0.34945
 Alpha  occ. eigenvalues --   -0.34879  -0.34743  -0.34295  -0.33911  -0.33837
 Alpha  occ. eigenvalues --   -0.33683  -0.33472  -0.33278  -0.33108  -0.32761
 Alpha  occ. eigenvalues --   -0.32525  -0.32052  -0.31714  -0.31584  -0.31180
 Alpha  occ. eigenvalues --   -0.30976  -0.30844  -0.30575  -0.30023  -0.29786
 Alpha  occ. eigenvalues --   -0.29378  -0.28122  -0.27444  -0.26650  -0.25128
 Alpha  occ. eigenvalues --   -0.24957  -0.24033  -0.23801  -0.22045  -0.21870
 Alpha  occ. eigenvalues --   -0.21670  -0.21491  -0.21361  -0.21249  -0.21077
 Alpha  occ. eigenvalues --   -0.21036  -0.20596  -0.20110  -0.19180  -0.19042
 Alpha  occ. eigenvalues --   -0.18083  -0.17418  -0.16780  -0.16654  -0.16092
 Alpha  occ. eigenvalues --   -0.15443  -0.13772  -0.12209  -0.09905
 Alpha virt. eigenvalues --   -0.01825   0.00263   0.01302   0.01890   0.01975
 Alpha virt. eigenvalues --    0.02028   0.02168   0.02425   0.02608   0.03010
 Alpha virt. eigenvalues --    0.03052   0.03321   0.03598   0.06734   0.07173

 Mulliken charges:
               1
     1  C    0.025356
     2  C    0.252803
     3  C   -0.110103
     4  C    0.222043
     5  C   -0.037989
     6  C   -0.236449
     7  C   -0.122908
     8  C    0.196846
     9  C   -0.155792
    10  C    0.000372
    11  C   -0.234407
    12  C    0.262438
    13  H    0.143384
    14  H    0.115470
    15  H    0.116381
    16  N    0.411820
    17  N    0.517456
    18  N    0.345678
    19  N    0.290463
    20  C   -0.168151
    21  H    0.114488
    22  C   -0.061556
    23  H    0.107602
    24  C    0.208084
    25  C   -0.044381
    26  H    0.118505
    27  C    0.087086
    28  C    0.234138
    29  C    0.189100
    30  C    0.058268
    31  C   -0.669193
    32  C    0.055524
    33  C    0.220751
    34  C    0.275103
    35  C    0.317877
    36  C    0.485662
    37  C   -0.660045
    38  C    0.173766
    39  C    0.031448
    40  C    0.327020
    41  C    0.284029
    42  C    0.489418
    43  C   -0.675999
    44  C    0.071068
    45  C    0.130897
    46  C    0.324272
    47  C    0.386242
    48  C    0.468285
    49  Ni  -0.518753
    50  C   -0.411388
    51  C    0.017942
    52  F   -0.281233
    53  F   -0.354022
    54  F   -0.350484
    55  F   -0.352073
    56  F   -0.277228
    57  F   -0.279393
    58  F   -0.355738
    59  F   -0.351683
    60  F   -0.353805
    61  F   -0.277818
    62  F   -0.273839
    63  F   -0.353141
    64  F   -0.352015
    65  F   -0.355904
    66  F   -0.277767
    67  H    0.112375
    68  O   -0.565819
    69  C   -0.243580
    70  H    0.140226
    71  S    0.429854
    72  H    0.140567
    73  N   -0.137454
 Sum of Mulliken charges =  -1.00000

 Dipole moment (field-independent basis, Debye):
    X=              3.0537    Y=              5.1609    Z=              1.8503  Tot=              6.2757
 Quadrupole moment (field-independent basis, Debye-Ang):
   XX=           -457.2169   YY=           -436.7417   ZZ=           -408.2481
   XY=             -7.6028   XZ=              0.8684   YZ=             -4.5288

 Normal termination of Gaussian 16 at Tue Oct 26 10:00:35 2021.
