 Gaussian 16, Revision C.01,
 Gaussian 16:  ES64L-G16RevC.01  3-Jul-2019

 -----------------------------------------------------
 #p opt b3lyp/genecp geom=connectivity scf=maxcyc=1000
 -----------------------------------------------------

 -----
 title
 -----
 Symbolic Z-matrix:
 Charge = -1 Multiplicity = 1

 SCF Done:  E(RB3LYP) =  -3923.29299252     A.U. after   28 cycles
 SCF Done:  E(RB3LYP) =  -3923.34627137     A.U. after   20 cycles
 SCF Done:  E(RB3LYP) =  -3923.35362113     A.U. after   23 cycles
 SCF Done:  E(RB3LYP) =  -3923.39635803     A.U. after   23 cycles
 SCF Done:  E(RB3LYP) =  -3923.40406595     A.U. after   24 cycles
 SCF Done:  E(RB3LYP) =  -3923.40541220     A.U. after   23 cycles
 SCF Done:  E(RB3LYP) =  -3923.40830228     A.U. after   19 cycles
 SCF Done:  E(RB3LYP) =  -3923.40909321     A.U. after   23 cycles
 SCF Done:  E(RB3LYP) =  -3923.40909420     A.U. after   23 cycles
 SCF Done:  E(RB3LYP) =  -3923.40946249     A.U. after   17 cycles
 SCF Done:  E(RB3LYP) =  -3923.40986543     A.U. after   13 cycles
 SCF Done:  E(RB3LYP) =  -3923.40987171     A.U. after   13 cycles
 SCF Done:  E(RB3LYP) =  -3923.40987491     A.U. after   13 cycles
 SCF Done:  E(RB3LYP) =  -3923.40987569     A.U. after   12 cycles
 SCF Done:  E(RB3LYP) =  -3923.40987601     A.U. after   12 cycles
 SCF Done:  E(RB3LYP) =  -3923.40987612     A.U. after   12 cycles
 SCF Done:  E(RB3LYP) =  -3923.40987613     A.U. after   11 cycles
 SCF Done:  E(RB3LYP) =  -3923.40987610     A.U. after   10 cycles
 SCF Done:  E(RB3LYP) =  -3923.40987612     A.U. after   10 cycles
 SCF Done:  E(RB3LYP) =  -3923.40987613     A.U. after    9 cycles
 Optimization completed.
    -- Stationary point found.

                         Standard orientation:
 ---------------------------------------------------------------------
 Center     Atomic      Atomic             Coordinates (Angstroms)
 Number     Number       Type             X           Y           Z
 ---------------------------------------------------------------------
      1          6           0       -1.990458   -2.850386   -0.377567
      2          6           0        2.210748    1.693504   -0.057016
      3          6           0        4.235590    0.702407    0.118041
      4          6           0        3.192323   -0.290841    0.046384
      5          6           0        2.394058   -2.651883   -0.080895
      6          6           0        1.396643   -4.653805   -0.367939
      7          6           0        0.432989   -3.606945   -0.393716
      8          6           0       -0.145073    2.491434   -0.106752
      9          6           0       -1.144442    3.540551   -0.082679
     10          6           0       -2.923495   -0.864592   -0.081237
     11          6           0       -3.970535   -1.818610   -0.077128
     12          6           0       -2.129779    1.508246   -0.038426
     13          1           0       -5.022826   -1.595390    0.023154
     14          1           0       -0.937467    4.601441   -0.095303
     15          1           0        5.292753    0.494045    0.206724
     16          7           0        1.042030   -2.402501   -0.212469
     17          7           0       -1.717956   -1.513180   -0.240237
     18          7           0        1.968092    0.347380   -0.058682
     19          7           0       -0.768766    1.273635   -0.093454
     20          6           0        3.635193    1.923577    0.045656
     21          1           0        4.111790    2.893465    0.070719
     22          6           0        2.621403   -4.063199   -0.160615
     23          1           0        3.583689   -4.550222   -0.082656
     24          6           0       -3.415372   -3.077381   -0.264220
     25          6           0       -2.361821    2.935027   -0.028952
     26          1           0       -3.331985    3.410597    0.007627
     27          6           0       -0.983854   -3.877762   -0.608614
     28          6           0       -3.116960    0.535690   -0.000991
     29          6           0        3.392613   -1.666356    0.053973
     30          6           0        1.239846    2.708167   -0.107666
     31          6           0        4.802735   -2.154517    0.187566
     32          6           0        5.622348   -2.358607   -0.927887
     33          6           0        5.363797   -2.443368    1.436326
     34          6           0        6.932418   -2.821863   -0.815269
     35          6           0        6.670794   -2.907703    1.576807
     36          6           0        7.457760   -3.097972    0.444182
     37          6           0        1.721820    4.123203   -0.125123
     38          6           0        2.135570    4.747064   -1.309218
     39          6           0        1.789808    4.900102    1.038584
     40          6           0        2.591294    6.064186   -1.342735
     41          6           0        2.238625    6.219968    1.033444
     42          6           0        2.641643    6.804002   -0.164407
     43          6           0       -4.534966    1.006382    0.112107
     44          6           0       -5.322410    1.255222   -1.017533
     45          6           0       -5.144271    1.210346    1.355057
     46          6           0       -6.644315    1.687698   -0.924257
     47          6           0       -6.464512    1.641363    1.476470
     48          6           0       -7.217316    1.880257    0.329999
     49          6           0       -4.223097   -4.298951   -0.251066
     50          6           0       -5.206338   -6.396391   -0.651185
     51          1           0       -3.251685   -5.752248   -1.501956
     52          9           0        4.641894   -2.272518    2.555651
     53          9           0        7.178965   -3.171671    2.793647
     54          9           0        8.718956   -3.543531    0.566122
     55          9           0        7.693236   -3.003551   -1.909297
     56          9           0        5.157601   -2.104751   -2.161916
     57          9           0        2.098559    4.076273   -2.472401
     58          9           0        2.977883    6.628963   -2.500841
     59          9           0        3.077240    8.074593   -0.182981
     60          9           0        2.290461    6.933283    2.172924
     61          9           0        1.419791    4.378016    2.219888
     62          9           0       -4.809660    1.085800   -2.247135
     63          9           0       -7.369912    1.923083   -2.031804
     64          9           0       -8.489407    2.298512    0.433299
     65          9           0       -7.016730    1.830394    2.687987
     66          9           0       -4.455387    0.993115    2.487233
     67          1           0       -5.277886   -7.390392   -1.080640
     68          8           0       -1.313640   -5.028390   -0.969638
     69          6           0       -4.111025   -5.514783   -0.893213
     70          6           0       -6.156793   -5.866187    0.182152
     71          1           0       -7.072591   -6.320433    0.536525
     72         16           0       -5.719899   -4.268639    0.691305
     73         46           0        0.130748   -0.574255   -0.161710
     74          1           0        1.155011   -5.698970   -0.491458
 ---------------------------------------------------------------------

 The electronic state is 1-A.
 Alpha  occ. eigenvalues --  -88.81438 -24.70059 -24.69987 -24.69731 -24.69425
 Alpha  occ. eigenvalues --  -24.69412 -24.69357 -24.69353 -24.69100 -24.69098
 Alpha  occ. eigenvalues --  -24.68179 -24.68154 -24.68139 -24.68137 -24.67914
 Alpha  occ. eigenvalues --  -24.67908 -19.02148 -14.28048 -14.27945 -14.27932
 Alpha  occ. eigenvalues --  -14.27742 -10.26199 -10.26151 -10.25899 -10.25480
 Alpha  occ. eigenvalues --  -10.25472 -10.25436 -10.25432 -10.25184 -10.25182
 Alpha  occ. eigenvalues --  -10.25166 -10.25162 -10.25131 -10.25123 -10.24916
 Alpha  occ. eigenvalues --  -10.24912 -10.17967 -10.17919 -10.17726 -10.17202
 Alpha  occ. eigenvalues --  -10.15759 -10.15720 -10.15197 -10.15163 -10.14767
 Alpha  occ. eigenvalues --  -10.14521 -10.14308 -10.14296 -10.14128 -10.13699
 Alpha  occ. eigenvalues --  -10.13575 -10.13522 -10.12842 -10.12316 -10.12258
 Alpha  occ. eigenvalues --  -10.12063 -10.11986 -10.11933 -10.11463 -10.10355
 Alpha  occ. eigenvalues --  -10.10063 -10.10016 -10.09687  -7.88740  -5.85088
 Alpha  occ. eigenvalues --   -5.84725  -5.84383  -3.29684  -2.02838  -2.02731
 Alpha  occ. eigenvalues --   -1.98579  -1.22045  -1.21987  -1.21732  -1.20986
 Alpha  occ. eigenvalues --   -1.20940  -1.20689  -1.20415  -1.20368  -1.20118
 Alpha  occ. eigenvalues --   -1.19266  -1.19246  -1.19214  -1.19192  -1.19008
 Alpha  occ. eigenvalues --   -1.18951  -0.92495  -0.89682  -0.88800  -0.88023
 Alpha  occ. eigenvalues --   -0.87711  -0.85504  -0.85438  -0.85233  -0.79936
 Alpha  occ. eigenvalues --   -0.77691  -0.76811  -0.76194  -0.73151  -0.73137
 Alpha  occ. eigenvalues --   -0.72888  -0.71663  -0.71017  -0.70558  -0.70431
 Alpha  occ. eigenvalues --   -0.69949  -0.69432  -0.68406  -0.65621  -0.65203
 Alpha  occ. eigenvalues --   -0.64922  -0.63263  -0.62400  -0.62273  -0.61427
 Alpha  occ. eigenvalues --   -0.61423  -0.61176  -0.60462  -0.58164  -0.57554
 Alpha  occ. eigenvalues --   -0.54943  -0.54779  -0.54568  -0.54126  -0.54110
 Alpha  occ. eigenvalues --   -0.53879  -0.53371  -0.53125  -0.52867  -0.52694
 Alpha  occ. eigenvalues --   -0.51560  -0.50721  -0.50001  -0.49920  -0.49887
 Alpha  occ. eigenvalues --   -0.49645  -0.49638  -0.49257  -0.49060  -0.48796
 Alpha  occ. eigenvalues --   -0.48178  -0.47839  -0.47691  -0.47607  -0.47460
 Alpha  occ. eigenvalues --   -0.47033  -0.46732  -0.46693  -0.46494  -0.46467
 Alpha  occ. eigenvalues --   -0.45787  -0.44763  -0.44701  -0.44626  -0.44450
 Alpha  occ. eigenvalues --   -0.44046  -0.43908  -0.43682  -0.43322  -0.43271
 Alpha  occ. eigenvalues --   -0.42874  -0.41752  -0.41732  -0.41686  -0.41666
 Alpha  occ. eigenvalues --   -0.41447  -0.41439  -0.39794  -0.39698  -0.39632
 Alpha  occ. eigenvalues --   -0.39437  -0.39406  -0.39376  -0.39234  -0.38930
 Alpha  occ. eigenvalues --   -0.37817  -0.37757  -0.37586  -0.36673  -0.36651
 Alpha  occ. eigenvalues --   -0.36407  -0.35634  -0.35618  -0.34954  -0.34843
 Alpha  occ. eigenvalues --   -0.34804  -0.34588  -0.34397  -0.33864  -0.33824
 Alpha  occ. eigenvalues --   -0.33798  -0.33743  -0.33576  -0.33115  -0.32710
 Alpha  occ. eigenvalues --   -0.32253  -0.32215  -0.32063  -0.31452  -0.30977
 Alpha  occ. eigenvalues --   -0.30852  -0.30596  -0.30422  -0.30040  -0.29960
 Alpha  occ. eigenvalues --   -0.29878  -0.29364  -0.28512  -0.27947  -0.25938
 Alpha  occ. eigenvalues --   -0.24649  -0.24422  -0.23985  -0.22576  -0.22444
 Alpha  occ. eigenvalues --   -0.22383  -0.21907  -0.21709  -0.21512  -0.21398
 Alpha  occ. eigenvalues --   -0.20996  -0.20979  -0.20731  -0.19609  -0.18152
 Alpha  occ. eigenvalues --   -0.17421  -0.17266  -0.16752  -0.16602  -0.15624
 Alpha  occ. eigenvalues --   -0.14980  -0.13575  -0.12046  -0.09769
 Alpha virt. eigenvalues --   -0.01815   0.00270   0.01941   0.02031   0.02092
 Alpha virt. eigenvalues --    0.02232   0.02304   0.02461   0.02720   0.03082
 Alpha virt. eigenvalues --    0.03129   0.03350   0.03814   0.06888   0.07081

 Mulliken charges:
               1
     1  C   -0.007647
     2  C    0.388792
     3  C   -0.256763
     4  C    0.383766
     5  C    0.194351
     6  C   -0.332866
     7  C    0.143481
     8  C    0.398031
     9  C   -0.321893
    10  C    0.136905
    11  C   -0.502830
    12  C    0.255746
    13  H    0.119672
    14  H    0.115192
    15  H    0.115841
    16  N    0.245844
    17  N    0.334232
    18  N    0.205740
    19  N    0.214846
    20  C   -0.218272
    21  H    0.114289
    22  C   -0.221078
    23  H    0.107351
    24  C    0.533722
    25  C   -0.313864
    26  H    0.117607
    27  C    0.269910
    28  C    0.166412
    29  C    0.122103
    30  C    0.141947
    31  C   -0.669297
    32  C    0.136373
    33  C    0.170375
    34  C    0.242601
    35  C    0.265769
    36  C    0.540321
    37  C   -0.615879
    38  C    0.079674
    39  C    0.027835
    40  C    0.370125
    41  C    0.357639
    42  C    0.464578
    43  C   -0.763008
    44  C    0.266406
    45  C    0.253707
    46  C    0.172430
    47  C    0.205665
    48  C    0.587455
    49  C   -0.343620
    50  C   -0.232878
    51  H    0.168825
    52  F   -0.281409
    53  F   -0.351373
    54  F   -0.352511
    55  F   -0.351075
    56  F   -0.282112
    57  F   -0.281889
    58  F   -0.355470
    59  F   -0.351422
    60  F   -0.354808
    61  F   -0.282823
    62  F   -0.278871
    63  F   -0.348130
    64  F   -0.352501
    65  F   -0.346405
    66  F   -0.280268
    67  H    0.119549
    68  O   -0.585009
    69  C    0.180057
    70  C   -0.117795
    71  H    0.140832
    72  S   -0.025493
    73  Pd  -0.339137
    74  H    0.142397
 Sum of Mulliken charges =  -1.00000

 Dipole moment (field-independent basis, Debye):
    X=              1.9485    Y=              5.2861    Z=              0.7989  Tot=              5.6902
 Quadrupole moment (field-independent basis, Debye-Ang):
   XX=           -463.4247   YY=           -451.1546   ZZ=           -411.1129
   XY=             -5.7475   XZ=              0.0141   YZ=             -3.1487

 Normal termination of Gaussian 16 at Wed Oct 20 21:32:50 2021.
