 Gaussian 16, Revision C.01,
 Gaussian 16:  ES64L-G16RevC.01  3-Jul-2019

 ----------------------------------------------------
 # opt b3lyp/genecp geom=connectivity scf=maxcyc=1000
 ----------------------------------------------------

 -----
 title
 -----
 Symbolic Z-matrix:
 Charge = -1 Multiplicity = 1

 SCF Done:  E(RB3LYP) =  -4475.08410667     A.U. after   26 cycles
 SCF Done:  E(RB3LYP) =  -4475.14773239     A.U. after   24 cycles
 SCF Done:  E(RB3LYP) =  -4475.15711816     A.U. after   23 cycles
 SCF Done:  E(RB3LYP) =  -4475.20824480     A.U. after   23 cycles
 SCF Done:  E(RB3LYP) =  -4475.21811738     A.U. after   23 cycles
 SCF Done:  E(RB3LYP) =  -4475.22101675     A.U. after   24 cycles
 SCF Done:  E(RB3LYP) =  -4475.22220267     A.U. after   24 cycles
 SCF Done:  E(RB3LYP) =  -4475.22211829     A.U. after   19 cycles
 SCF Done:  E(RB3LYP) =  -4475.22277864     A.U. after   18 cycles
 SCF Done:  E(RB3LYP) =  -4475.22296301     A.U. after   18 cycles
 SCF Done:  E(RB3LYP) =  -4475.22302880     A.U. after   14 cycles
 SCF Done:  E(RB3LYP) =  -4475.22305454     A.U. after   14 cycles
 SCF Done:  E(RB3LYP) =  -4475.22306947     A.U. after   14 cycles
 SCF Done:  E(RB3LYP) =  -4475.22307611     A.U. after   14 cycles
 SCF Done:  E(RB3LYP) =  -4475.22307889     A.U. after   13 cycles
 SCF Done:  E(RB3LYP) =  -4475.22307961     A.U. after   13 cycles
 SCF Done:  E(RB3LYP) =  -4475.22308003     A.U. after   11 cycles
 SCF Done:  E(RB3LYP) =  -4475.22308012     A.U. after   11 cycles
 Optimization completed.
    -- Stationary point found.

                         Standard orientation:
 ---------------------------------------------------------------------
 Center     Atomic      Atomic             Coordinates (Angstroms)
 Number     Number       Type             X           Y           Z
 ---------------------------------------------------------------------
      1          6           0       -1.276848   -2.756837   -0.564856
      2          6           0        1.250301    2.830580   -0.171950
      3          6           0        3.477370    2.530088    0.090578
      4          6           0        2.797890    1.256343    0.043371
      5          6           0        2.777483   -1.241563   -0.035075
      6          6           0        2.510896   -3.470478   -0.398922
      7          6           0        1.260300   -2.763542   -0.564197
      8          6           0       -1.236876    2.839118   -0.180549
      9          6           0       -2.516057    3.512865   -0.097929
     10          6           0       -2.788367   -1.224977   -0.048243
     11          6           0       -3.455590   -2.475783   -0.062817
     12          6           0       -2.795524    1.273419    0.018344
     13          1           0       -4.509821   -2.629968    0.117548
     14          1           0       -2.662060    4.583548   -0.126243
     15          1           0        4.542873    2.666149    0.213295
     16          7           0        1.440494   -1.435066   -0.312547
     17          7           0       -1.451244   -1.426418   -0.319492
     18          7           0        1.443109    1.477722   -0.123676
     19          7           0       -1.437127    1.487162   -0.127195
     20          6           0        2.530458    3.497942   -0.058427
     21          1           0        2.680414    4.568468   -0.070017
     22          6           0        3.438697   -2.495503   -0.053679
     23          1           0        4.491676   -2.655614    0.128808
     24          6           0       -2.531294   -3.456950   -0.399900
     25          6           0       -3.469638    2.550659    0.043983
     26          1           0       -4.536577    2.692593    0.145751
     27          6           0       -0.009714   -3.360168   -0.967964
     28          6           0       -3.415226    0.033623    0.103257
     29          6           0        3.409842    0.012757    0.128705
     30          6           0        0.009092    3.483748   -0.242426
     31          6           0        4.888132   -0.010701    0.369019
     32          6           0        5.808808   -0.008294   -0.684784
     33          6           0        5.419626   -0.049141    1.662764
     34          6           0        7.186004   -0.037566   -0.471180
     35          6           0        6.792345   -0.079826    1.904124
     36          6           0        7.678739   -0.074992    0.830561
     37          6           0        0.017575    4.976704   -0.317702
     38          6           0        0.187719    5.650403   -1.534081
     39          6           0       -0.138744    5.781871    0.817920
     40          6           0        0.202489    7.041554   -1.624551
     41          6           0       -0.130811    7.174521    0.755932
     42          6           0        0.041268    7.806654   -0.472634
     43          6           0       -4.896121    0.019689    0.327761
     44          6           0       -5.805311    0.011100   -0.735948
     45          6           0       -5.441782    0.002019    1.616049
     46          6           0       -7.184839   -0.009155   -0.537012
     47          6           0       -6.817183   -0.019441    1.842814
     48          6           0       -7.691838   -0.026016    0.759684
     49          6           0       -2.862240   -4.881738   -0.442360
     50          6           0       -3.099131   -7.157259   -0.978033
     51          1           0       -1.659259   -5.783142   -1.978851
     52          6           0        2.835558   -4.896467   -0.448423
     53          6           0        3.064973   -7.169464   -0.997851
     54          1           0        1.634190   -5.783227   -1.994757
     55          9           0        4.601359   -0.054136    2.727591
     56          9           0        7.267938   -0.112681    3.161380
     57          9           0        9.003364   -0.101810    1.049553
     58          9           0        8.042133   -0.028554   -1.508017
     59          9           0        5.377909    0.029867   -1.956034
     60          9           0        0.340903    4.955253   -2.673110
     61          9           0        0.366475    7.651726   -2.811938
     62          9           0        0.052034    9.147746   -0.545931
     63          9           0       -0.282844    7.913329    1.869794
     64          9           0       -0.299092    5.217880    2.026789
     65          9           0       -5.360492    0.030017   -2.002869
     66          9           0       -8.029630   -0.010815   -1.583174
     67          9           0       -9.018876   -0.044056    0.964538
     68          9           0       -7.306532   -0.032723    3.095122
     69          9           0       -4.635173    0.008206    2.689683
     70          1           0        2.849580   -8.083985   -1.540709
     71          1           0       -2.885603   -8.076108   -1.514282
     72          8           0       -0.012430   -4.415091   -1.633523
     73          6           0        2.405447   -5.930360   -1.253724
     74          6           0       -2.433565   -5.922542   -1.239504
     75          6           0       -4.035407   -7.068092    0.019175
     76          1           0       -4.671009   -7.847166    0.418655
     77         16           0       -4.110962   -5.461643    0.664732
     78         16           0        4.077855   -5.488600    0.659373
     79          6           0        3.997987   -7.090554    0.003292
     80          1           0        4.628815   -7.874837    0.400134
     81         46           0       -0.001247    0.027204   -0.243099
 ---------------------------------------------------------------------

 The electronic state is 1-A.
 Alpha  occ. eigenvalues --  -88.81784 -88.81779 -24.70176 -24.69908 -24.69904
 Alpha  occ. eigenvalues --  -24.69552 -24.69527 -24.69281 -24.69279 -24.69278
 Alpha  occ. eigenvalues --  -24.69273 -24.68332 -24.68288 -24.68115 -24.68114
 Alpha  occ. eigenvalues --  -24.68113 -24.68105 -19.03482 -14.28379 -14.28373
 Alpha  occ. eigenvalues --  -14.28058 -14.28052 -10.26331 -10.26094 -10.26089
 Alpha  occ. eigenvalues --  -10.25617 -10.25602 -10.25378 -10.25377 -10.25374
 Alpha  occ. eigenvalues --  -10.25371 -10.25280 -10.25266 -10.25130 -10.25126
 Alpha  occ. eigenvalues --  -10.25125 -10.25121 -10.18130 -10.18076 -10.17950
 Alpha  occ. eigenvalues --  -10.17944 -10.15978 -10.15972 -10.15444 -10.15437
 Alpha  occ. eigenvalues --  -10.14864 -10.14857 -10.14618 -10.14613 -10.14444
 Alpha  occ. eigenvalues --  -10.14441 -10.14166 -10.14162 -10.13853 -10.13848
 Alpha  occ. eigenvalues --  -10.13780 -10.12503 -10.12495 -10.12337 -10.12334
 Alpha  occ. eigenvalues --  -10.12236 -10.12232 -10.11770 -10.11765 -10.10481
 Alpha  occ. eigenvalues --  -10.10472 -10.10442 -10.10438  -7.89073  -7.89068
 Alpha  occ. eigenvalues --   -5.85421  -5.85417  -5.85058  -5.85053  -5.84717
 Alpha  occ. eigenvalues --   -5.84712  -3.29961  -2.03104  -2.03039  -1.98860
 Alpha  occ. eigenvalues --   -1.22170  -1.21918  -1.21913  -1.21116  -1.20879
 Alpha  occ. eigenvalues --   -1.20874  -1.20544  -1.20309  -1.20305  -1.19410
 Alpha  occ. eigenvalues --   -1.19350  -1.19210  -1.19205  -1.19150  -1.19145
 Alpha  occ. eigenvalues --   -0.93747  -0.89981  -0.89111  -0.88601  -0.88196
 Alpha  occ. eigenvalues --   -0.85612  -0.85442  -0.85429  -0.80282  -0.80276
 Alpha  occ. eigenvalues --   -0.77862  -0.76953  -0.76349  -0.73288  -0.73088
 Alpha  occ. eigenvalues --   -0.73083  -0.71868  -0.71357  -0.71202  -0.70732
 Alpha  occ. eigenvalues --   -0.70573  -0.70103  -0.69610  -0.66015  -0.65920
 Alpha  occ. eigenvalues --   -0.65509  -0.65448  -0.63817  -0.63382  -0.62532
 Alpha  occ. eigenvalues --   -0.62419  -0.61563  -0.61373  -0.61368  -0.60615
 Alpha  occ. eigenvalues --   -0.58379  -0.57890  -0.55073  -0.54786  -0.54744
 Alpha  occ. eigenvalues --   -0.54253  -0.54084  -0.54077  -0.53658  -0.53483
 Alpha  occ. eigenvalues --   -0.53123  -0.52847  -0.52125  -0.51463  -0.50666
 Alpha  occ. eigenvalues --   -0.50051  -0.49862  -0.49830  -0.49826  -0.49698
 Alpha  occ. eigenvalues --   -0.49385  -0.49331  -0.49147  -0.48221  -0.48192
 Alpha  occ. eigenvalues --   -0.47772  -0.47712  -0.47692  -0.47502  -0.46987
 Alpha  occ. eigenvalues --   -0.46840  -0.46698  -0.46693  -0.46638  -0.45943
 Alpha  occ. eigenvalues --   -0.44888  -0.44640  -0.44635  -0.44374  -0.44167
 Alpha  occ. eigenvalues --   -0.44078  -0.43975  -0.43491  -0.43435  -0.43135
 Alpha  occ. eigenvalues --   -0.41894  -0.41861  -0.41642  -0.41639  -0.41630
 Alpha  occ. eigenvalues --   -0.41624  -0.40108  -0.40067  -0.39815  -0.39558
 Alpha  occ. eigenvalues --   -0.39551  -0.39541  -0.39432  -0.39335  -0.39097
 Alpha  occ. eigenvalues --   -0.38137  -0.37832  -0.37812  -0.36804  -0.36604
 Alpha  occ. eigenvalues --   -0.36593  -0.36307  -0.35839  -0.35386  -0.35164
 Alpha  occ. eigenvalues --   -0.35030  -0.34888  -0.34804  -0.34357  -0.34000
 Alpha  occ. eigenvalues --   -0.33924  -0.33800  -0.33756  -0.33641  -0.33105
 Alpha  occ. eigenvalues --   -0.32877  -0.32649  -0.32435  -0.32306  -0.32180
 Alpha  occ. eigenvalues --   -0.31454  -0.31426  -0.30880  -0.30802  -0.30678
 Alpha  occ. eigenvalues --   -0.30481  -0.30222  -0.30149  -0.29820  -0.29643
 Alpha  occ. eigenvalues --   -0.28730  -0.28493  -0.26354  -0.26321  -0.24904
 Alpha  occ. eigenvalues --   -0.24789  -0.24327  -0.22866  -0.22833  -0.22761
 Alpha  occ. eigenvalues --   -0.22024  -0.21771  -0.21751  -0.21627  -0.21144
 Alpha  occ. eigenvalues --   -0.20934  -0.20921  -0.20159  -0.19144  -0.17921
 Alpha  occ. eigenvalues --   -0.17718  -0.17555  -0.17054  -0.16981  -0.16911
 Alpha  occ. eigenvalues --   -0.16353  -0.14333  -0.13336  -0.11989  -0.10186
 Alpha virt. eigenvalues --   -0.02103   0.00039   0.01819   0.01932   0.02093
 Alpha virt. eigenvalues --    0.02115   0.02285   0.02291   0.02607   0.02938
 Alpha virt. eigenvalues --    0.02951   0.03148   0.03288   0.05035   0.06727

 Mulliken charges:
               1
     1  C    0.088758
     2  C    0.204416
     3  C   -0.225374
     4  C    0.420670
     5  C    0.049240
     6  C    0.402224
     7  C    0.083169
     8  C    0.226225
     9  C   -0.308143
    10  C    0.046199
    11  C   -0.529540
    12  C    0.421892
    13  H    0.121539
    14  H    0.115379
    15  H    0.117488
    16  N    0.354689
    17  N    0.354362
    18  N    0.217655
    19  N    0.219249
    20  C   -0.303927
    21  H    0.115081
    22  C   -0.532010
    23  H    0.121553
    24  C    0.402349
    25  C   -0.230176
    26  H    0.117542
    27  C    0.025647
    28  C    0.270067
    29  C    0.279563
    30  C    0.119554
    31  C   -0.734873
    32  C    0.257847
    33  C    0.269721
    34  C    0.193664
    35  C    0.245196
    36  C    0.553641
    37  C   -0.624724
    38  C    0.091254
    39  C    0.008977
    40  C    0.373905
    41  C    0.353107
    42  C    0.460798
    43  C   -0.725726
    44  C    0.250480
    45  C    0.252449
    46  C    0.197879
    47  C    0.252935
    48  C    0.548811
    49  C   -0.526424
    50  C   -0.293989
    51  H    0.164884
    52  C   -0.523182
    53  C   -0.292839
    54  H    0.164692
    55  F   -0.278608
    56  F   -0.349939
    57  F   -0.351708
    58  F   -0.350327
    59  F   -0.276941
    60  F   -0.279164
    61  F   -0.355332
    62  F   -0.351168
    63  F   -0.354286
    64  F   -0.281111
    65  F   -0.276646
    66  F   -0.350299
    67  F   -0.351683
    68  F   -0.350059
    69  F   -0.278909
    70  H    0.120235
    71  H    0.120236
    72  O   -0.551056
    73  C    0.291746
    74  C    0.297740
    75  C   -0.096835
    76  H    0.142093
    77  S    0.017919
    78  S    0.017021
    79  C   -0.097858
    80  H    0.142093
    81  Pd  -0.250981
 Sum of Mulliken charges =  -1.00000

 Dipole moment (field-independent basis, Debye):
    X=              0.0120    Y=              3.7877    Z=              0.9146  Tot=              3.8966
 Quadrupole moment (field-independent basis, Debye-Ang):
   XX=           -498.6287   YY=           -484.9421   ZZ=           -448.7969
   XY=             -0.0651   XZ=              1.2831   YZ=             -1.8814

 Normal termination of Gaussian 16 at Wed Oct 20 22:09:32 2021.
