 Gaussian 16, Revision C.01,
 Gaussian 16:  ES64L-G16RevC.01  3-Jul-2019

 ----------------------------------------------------
 # opt b3lyp/genecp geom=connectivity scf=maxcyc=1000
 ----------------------------------------------------

 -----
 title
 -----
 Symbolic Z-matrix:
 Charge = -1 Multiplicity = 1

 SCF Done:  E(RB3LYP) =  -4467.52331435     A.U. after   23 cycles
 SCF Done:  E(RB3LYP) =  -4467.58703756     A.U. after   22 cycles
 SCF Done:  E(RB3LYP) =  -4467.59628264     A.U. after   23 cycles
 SCF Done:  E(RB3LYP) =  -4467.64758118     A.U. after   23 cycles
 SCF Done:  E(RB3LYP) =  -4467.65746593     A.U. after   23 cycles
 SCF Done:  E(RB3LYP) =  -4467.66038733     A.U. after   23 cycles
 SCF Done:  E(RB3LYP) =  -4467.66159819     A.U. after   23 cycles
 SCF Done:  E(RB3LYP) =  -4467.66160460     A.U. after   19 cycles
 SCF Done:  E(RB3LYP) =  -4467.66218790     A.U. after   15 cycles
 SCF Done:  E(RB3LYP) =  -4467.66216537     A.U. after   18 cycles
 SCF Done:  E(RB3LYP) =  -4467.66244088     A.U. after   13 cycles
 SCF Done:  E(RB3LYP) =  -4467.66244124     A.U. after   13 cycles
 SCF Done:  E(RB3LYP) =  -4467.66244151     A.U. after   12 cycles
 SCF Done:  E(RB3LYP) =  -4467.66244197     A.U. after   13 cycles
 SCF Done:  E(RB3LYP) =  -4467.66244232     A.U. after   13 cycles
 SCF Done:  E(RB3LYP) =  -4467.66244272     A.U. after   13 cycles
 SCF Done:  E(RB3LYP) =  -4467.66244319     A.U. after   13 cycles
 SCF Done:  E(RB3LYP) =  -4467.66244327     A.U. after   12 cycles
 SCF Done:  E(RB3LYP) =  -4467.66244331     A.U. after   12 cycles
 SCF Done:  E(RB3LYP) =  -4467.66244330     A.U. after   11 cycles
 Optimization completed.
    -- Stationary point found.

                         Standard orientation:
 ---------------------------------------------------------------------
 Center     Atomic      Atomic             Coordinates (Angstroms)
 Number     Number       Type             X           Y           Z
 ---------------------------------------------------------------------
      1          6           0       -1.265703   -2.761702   -0.540392
      2          6           0        1.241863    2.829932   -0.161754
      3          6           0        3.471511    2.535518    0.074994
      4          6           0        2.796914    1.260292    0.042764
      5          6           0        2.781939   -1.232989   -0.021882
      6          6           0        2.519269   -3.462269   -0.378643
      7          6           0        1.265227   -2.761957   -0.540130
      8          6           0       -1.241338    2.830147   -0.161487
      9          6           0       -2.519833    3.499849   -0.067474
     10          6           0       -2.782132   -1.232511   -0.021970
     11          6           0       -3.445719   -2.484066   -0.041679
     12          6           0       -2.796643    1.260764    0.043094
     13          1           0       -4.500545   -2.639185    0.132811
     14          1           0       -2.666009    4.570580   -0.088793
     15          1           0        4.537984    2.674410    0.183552
     16          7           0        1.439592   -1.429441   -0.288819
     17          7           0       -1.439811   -1.429192   -0.288844
     18          7           0        1.437458    1.474265   -0.110428
     19          7           0       -1.437172    1.474508   -0.110293
     20          6           0        2.520501    3.499411   -0.068107
     21          1           0        2.666871    4.570111   -0.089614
     22          6           0        3.445248   -2.484696   -0.041234
     23          1           0        4.500015   -2.640009    0.133438
     24          6           0       -2.519918   -3.461766   -0.379214
     25          6           0       -3.470995    2.536114    0.075659
     26          1           0       -4.537419    2.675192    0.184457
     27          6           0       -0.000261   -3.365091   -0.937746
     28          6           0       -3.412852    0.020686    0.130758
     29          6           0        3.412905    0.020113    0.130574
     30          6           0        0.000313    3.477462   -0.226373
     31          6           0        4.893130    0.001838    0.358151
     32          6           0        5.804308    0.002772   -0.703844
     33          6           0        5.435862   -0.029122    1.647389
     34          6           0        7.183406   -0.020991   -0.502248
     35          6           0        6.810786   -0.054367    1.876674
     36          6           0        7.687644   -0.051212    0.795283
     37          6           0        0.000433    4.971131   -0.301442
     38          6           0        0.000409    5.644989   -1.529062
     39          6           0        0.000588    5.773872    0.846096
     40          6           0        0.000521    7.036338   -1.619085
     41          6           0        0.000725    7.166648    0.785230
     42          6           0        0.000689    7.799817   -0.454846
     43          6           0       -4.893063    0.002630    0.358454
     44          6           0       -5.804337    0.004707   -0.703455
     45          6           0       -5.435685   -0.029286    1.647716
     46          6           0       -7.183425   -0.018864   -0.501754
     47          6           0       -6.810594   -0.054368    1.877103
     48          6           0       -7.687551   -0.050058    0.795795
     49          6           0       -2.853381   -4.885812   -0.429962
     50          6           0       -3.097306   -7.157440   -0.978684
     51          1           0       -1.647056   -5.784152   -1.965412
     52          6           0        2.852393   -4.886412   -0.428945
     53          6           0        3.095806   -7.158279   -0.976913
     54          1           0        1.646032   -5.784922   -1.964260
     55          9           0        4.626974   -0.032026    2.719148
     56          9           0        7.297546   -0.080270    3.129747
     57          9           0        9.014185   -0.072729    1.002696
     58          9           0        8.030309   -0.013587   -1.546596
     59          9           0        5.361945    0.034235   -1.971268
     60          9           0        0.000268    4.950418   -2.678368
     61          9           0        0.000470    7.647976   -2.816839
     62          9           0        0.000816    9.140854   -0.527382
     63          9           0        0.000897    7.904329    1.909986
     64          9           0        0.000614    5.207498    2.064185
     65          9           0       -5.362084    0.037089   -1.970896
     66          9           0       -8.030419   -0.010364   -1.546021
     67          9           0       -9.014078   -0.071401    1.003314
     68          9           0       -7.297249   -0.081196    3.130197
     69          9           0       -4.626698   -0.033285    2.719393
     70          1           0        2.883524   -8.075234   -1.516879
     71          1           0       -2.885178   -8.074284   -1.518900
     72          8           0       -0.000294   -4.426954   -1.593729
     73          6           0        2.424318   -5.924949   -1.229307
     74          6           0       -2.425485   -5.924198   -1.230613
     75          6           0       -4.037064   -7.069844    0.015420
     76          1           0       -4.676743   -7.848692    0.408794
     77         16           0       -4.108867   -5.466662    0.669138
     78         16           0        4.107573   -5.467245    0.670518
     79          6           0        4.035501   -7.070595    0.017240
     80          1           0        4.674973   -7.849467    0.410902
     81         78           0        0.000014    0.024767   -0.218444
 ---------------------------------------------------------------------

 The electronic state is 1-A.
 Alpha  occ. eigenvalues --  -88.81780 -88.81779 -24.70243 -24.69923 -24.69923
 Alpha  occ. eigenvalues --  -24.69616 -24.69590 -24.69296 -24.69295 -24.69292
 Alpha  occ. eigenvalues --  -24.69292 -24.68407 -24.68358 -24.68134 -24.68133
 Alpha  occ. eigenvalues --  -24.68122 -24.68122 -19.03296 -14.29245 -14.29245
 Alpha  occ. eigenvalues --  -14.28954 -14.28953 -10.26418 -10.26112 -10.26112
 Alpha  occ. eigenvalues --  -10.25690 -10.25675 -10.25395 -10.25395 -10.25392
 Alpha  occ. eigenvalues --  -10.25392 -10.25370 -10.25355 -10.25151 -10.25151
 Alpha  occ. eigenvalues --  -10.25147 -10.25147 -10.18153 -10.18001 -10.17976
 Alpha  occ. eigenvalues --  -10.17975 -10.15987 -10.15986 -10.15500 -10.15498
 Alpha  occ. eigenvalues --  -10.14866 -10.14866 -10.14702 -10.14701 -10.14440
 Alpha  occ. eigenvalues --  -10.14440 -10.14101 -10.14099 -10.13921 -10.13851
 Alpha  occ. eigenvalues --  -10.13851 -10.12501 -10.12501 -10.12370 -10.12370
 Alpha  occ. eigenvalues --  -10.12268 -10.12268 -10.11760 -10.11760 -10.10469
 Alpha  occ. eigenvalues --  -10.10468 -10.10393 -10.10393  -7.89067  -7.89067
 Alpha  occ. eigenvalues --   -5.85416  -5.85416  -5.85053  -5.85053  -5.84712
 Alpha  occ. eigenvalues --   -5.84712  -3.86062  -2.08731  -2.08659  -2.04397
 Alpha  occ. eigenvalues --   -1.22242  -1.21933  -1.21933  -1.21184  -1.20894
 Alpha  occ. eigenvalues --   -1.20894  -1.20615  -1.20325  -1.20325  -1.19487
 Alpha  occ. eigenvalues --   -1.19425  -1.19227  -1.19227  -1.19166  -1.19166
 Alpha  occ. eigenvalues --   -0.93608  -0.90330  -0.89349  -0.88801  -0.88455
 Alpha  occ. eigenvalues --   -0.85698  -0.85474  -0.85457  -0.80285  -0.80282
 Alpha  occ. eigenvalues --   -0.77981  -0.77022  -0.76458  -0.73367  -0.73105
 Alpha  occ. eigenvalues --   -0.73105  -0.71986  -0.71482  -0.71468  -0.70945
 Alpha  occ. eigenvalues --   -0.70819  -0.70286  -0.69765  -0.66083  -0.66004
 Alpha  occ. eigenvalues --   -0.65506  -0.65470  -0.63938  -0.63467  -0.62613
 Alpha  occ. eigenvalues --   -0.62464  -0.61643  -0.61390  -0.61390  -0.60694
 Alpha  occ. eigenvalues --   -0.58452  -0.57984  -0.55146  -0.54819  -0.54767
 Alpha  occ. eigenvalues --   -0.54335  -0.54105  -0.54101  -0.53738  -0.53579
 Alpha  occ. eigenvalues --   -0.53186  -0.52893  -0.52317  -0.51553  -0.50868
 Alpha  occ. eigenvalues --   -0.50136  -0.50125  -0.49846  -0.49846  -0.49809
 Alpha  occ. eigenvalues --   -0.49675  -0.49419  -0.49197  -0.48319  -0.48260
 Alpha  occ. eigenvalues --   -0.47877  -0.47824  -0.47805  -0.47648  -0.47429
 Alpha  occ. eigenvalues --   -0.46982  -0.46921  -0.46718  -0.46717  -0.46241
 Alpha  occ. eigenvalues --   -0.44954  -0.44655  -0.44654  -0.44469  -0.44200
 Alpha  occ. eigenvalues --   -0.44130  -0.44028  -0.43549  -0.43473  -0.43190
 Alpha  occ. eigenvalues --   -0.41962  -0.41928  -0.41660  -0.41655  -0.41647
 Alpha  occ. eigenvalues --   -0.41647  -0.40420  -0.40304  -0.39882  -0.39714
 Alpha  occ. eigenvalues --   -0.39575  -0.39569  -0.39568  -0.39364  -0.39142
 Alpha  occ. eigenvalues --   -0.38234  -0.37994  -0.37954  -0.36880  -0.36632
 Alpha  occ. eigenvalues --   -0.36612  -0.36440  -0.35970  -0.35714  -0.35658
 Alpha  occ. eigenvalues --   -0.35305  -0.35197  -0.34938  -0.34432  -0.34282
 Alpha  occ. eigenvalues --   -0.34087  -0.34020  -0.33816  -0.33787  -0.33683
 Alpha  occ. eigenvalues --   -0.33182  -0.33003  -0.32656  -0.32463  -0.32206
 Alpha  occ. eigenvalues --   -0.31573  -0.31562  -0.30954  -0.30847  -0.30766
 Alpha  occ. eigenvalues --   -0.30503  -0.30282  -0.30154  -0.29865  -0.29778
 Alpha  occ. eigenvalues --   -0.28876  -0.28496  -0.26429  -0.26419  -0.25663
 Alpha  occ. eigenvalues --   -0.25529  -0.24405  -0.22661  -0.22561  -0.22099
 Alpha  occ. eigenvalues --   -0.21830  -0.21784  -0.21690  -0.21383  -0.21213
 Alpha  occ. eigenvalues --   -0.20952  -0.20936  -0.20096  -0.19311  -0.17967
 Alpha  occ. eigenvalues --   -0.17711  -0.17541  -0.16746  -0.16291  -0.16039
 Alpha  occ. eigenvalues --   -0.15704  -0.13848  -0.12819  -0.12010  -0.10285
 Alpha virt. eigenvalues --   -0.02013   0.00070   0.01720   0.01883   0.02064
 Alpha virt. eigenvalues --    0.02083   0.02270   0.02279   0.02879   0.02923
 Alpha virt. eigenvalues --    0.03128   0.03274   0.05047   0.06514   0.06719

 Mulliken charges:
               1
     1  C   -0.188199
     2  C    0.266378
     3  C   -0.039386
     4  C   -0.011457
     5  C    0.050987
     6  C    0.994637
     7  C   -0.188398
     8  C    0.266312
     9  C   -0.121367
    10  C    0.050771
    11  C    0.105692
    12  C   -0.011411
    13  H    0.121289
    14  H    0.114361
    15  H    0.117046
    16  N   -0.002936
    17  N   -0.002995
    18  N   -0.036220
    19  N   -0.036265
    20  C   -0.121316
    21  H    0.114360
    22  C    0.105648
    23  H    0.121290
    24  C    0.994684
    25  C   -0.039461
    26  H    0.117047
    27  C   -0.443965
    28  C   -0.044656
    29  C   -0.044620
    30  C   -0.040957
    31  C   -0.721018
    32  C    0.219337
    33  C    0.172239
    34  C    0.259213
    35  C    0.308580
    36  C    0.513829
    37  C   -0.582810
    38  C    0.043815
    39  C    0.028285
    40  C    0.411403
    41  C    0.375356
    42  C    0.446013
    43  C   -0.720915
    44  C    0.219199
    45  C    0.172130
    46  C    0.259237
    47  C    0.308732
    48  C    0.513722
    49  C   -0.671252
    50  C   -0.318080
    51  H    0.164975
    52  C   -0.671698
    53  C   -0.318206
    54  H    0.164983
    55  F   -0.277792
    56  F   -0.351084
    57  F   -0.351947
    58  F   -0.351466
    59  F   -0.275762
    60  F   -0.278237
    61  F   -0.355324
    62  F   -0.350850
    63  F   -0.354221
    64  F   -0.278660
    65  F   -0.275752
    66  F   -0.351470
    67  F   -0.351947
    68  F   -0.351082
    69  F   -0.277777
    70  H    0.120504
    71  H    0.120503
    72  O   -0.561289
    73  C    0.329103
    74  C    0.328446
    75  C   -0.116869
    76  H    0.142331
    77  S    0.020371
    78  S    0.020332
    79  C   -0.116766
    80  H    0.142332
    81  Pt   0.660409
 Sum of Mulliken charges =  -1.00000

 Dipole moment (field-independent basis, Debye):
    X=              0.0003    Y=              3.9560    Z=              0.8459  Tot=              4.0454
 Quadrupole moment (field-independent basis, Debye-Ang):
   XX=           -500.5515   YY=           -486.6905   ZZ=           -452.5856
   XY=              0.0020   XZ=             -0.0020   YZ=             -1.6600

 Normal termination of Gaussian 16 at Thu Oct 21 01:08:35 2021.
