 Gaussian 16, Revision C.01,
 Gaussian 16:  ES64L-G16RevC.01  3-Jul-2019

 -----------------------------------------------------
 #p opt b3lyp/genecp geom=connectivity scf=maxcyc=1000
 -----------------------------------------------------

 -----
 title
 -----
 Symbolic Z-matrix:
 Charge = -1 Multiplicity = 1

 SCF Done:  E(RB3LYP) =  -3915.73225259     A.U. after   24 cycles
 SCF Done:  E(RB3LYP) =  -3915.78565625     A.U. after   20 cycles
 SCF Done:  E(RB3LYP) =  -3915.79255144     A.U. after   23 cycles
 SCF Done:  E(RB3LYP) =  -3915.83568530     A.U. after   24 cycles
 SCF Done:  E(RB3LYP) =  -3915.84352794     A.U. after   23 cycles
 SCF Done:  E(RB3LYP) =  -3915.84483249     A.U. after   23 cycles
 SCF Done:  E(RB3LYP) =  -3915.84778116     A.U. after   19 cycles
 SCF Done:  E(RB3LYP) =  -3915.84727502     A.U. after   20 cycles
 SCF Done:  E(RB3LYP) =  -3915.84814361     A.U. after   17 cycles
 SCF Done:  E(RB3LYP) =  -3915.84904104     A.U. after   15 cycles
 SCF Done:  E(RB3LYP) =  -3915.84928182     A.U. after   12 cycles
 SCF Done:  E(RB3LYP) =  -3915.84928281     A.U. after   13 cycles
 SCF Done:  E(RB3LYP) =  -3915.84928375     A.U. after   13 cycles
 SCF Done:  E(RB3LYP) =  -3915.84928435     A.U. after   13 cycles
 SCF Done:  E(RB3LYP) =  -3915.84928465     A.U. after   13 cycles
 SCF Done:  E(RB3LYP) =  -3915.84928490     A.U. after   12 cycles
 SCF Done:  E(RB3LYP) =  -3915.84928490     A.U. after   12 cycles
 SCF Done:  E(RB3LYP) =  -3915.84928491     A.U. after   11 cycles
 SCF Done:  E(RB3LYP) =  -3915.84928489     A.U. after   10 cycles
 SCF Done:  E(RB3LYP) =  -3915.84928490     A.U. after   10 cycles
 Optimization completed.
    -- Stationary point found.

                         Standard orientation:
 ---------------------------------------------------------------------
 Center     Atomic      Atomic             Coordinates (Angstroms)
 Number     Number       Type             X           Y           Z
 ---------------------------------------------------------------------
      1          6           0       -1.988216   -2.818918   -0.347613
      2          6           0        2.197996    1.729492   -0.051814
      3          6           0        4.224667    0.741025    0.098241
      4          6           0        3.184089   -0.254024    0.043889
      5          6           0        2.390953   -2.612454   -0.064040
      6          6           0        1.394708   -4.616577   -0.327203
      7          6           0        0.428223   -3.573479   -0.356477
      8          6           0       -0.154916    2.522172   -0.092713
      9          6           0       -1.154153    3.568659   -0.058793
     10          6           0       -2.925822   -0.831540   -0.060893
     11          6           0       -3.970369   -1.786674   -0.062804
     12          6           0       -2.139067    1.537343   -0.019981
     13          1           0       -5.023266   -1.563181    0.027122
     14          1           0       -0.946417    4.629335   -0.065216
     15          1           0        5.282947    0.533758    0.172486
     16          7           0        1.034328   -2.363113   -0.188698
     17          7           0       -1.713852   -1.478262   -0.209784
     18          7           0        1.954464    0.380219   -0.047334
     19          7           0       -0.777023    1.300126   -0.081332
     20          6           0        3.621681    1.960503    0.030221
     21          1           0        4.096389    2.931372    0.043837
     22          6           0        2.618913   -4.023500   -0.133539
     23          1           0        3.582643   -4.507534   -0.057970
     24          6           0       -3.413340   -3.043851   -0.243587
     25          6           0       -2.370625    2.962665   -0.004288
     26          1           0       -3.341119    3.436615    0.038423
     27          6           0       -0.985474   -3.849429   -0.562123
     28          6           0       -3.124390    0.564851    0.018242
     29          6           0        3.387888   -1.627888    0.055744
     30          6           0        1.227079    2.740616   -0.097253
     31          6           0        4.800288   -2.112289    0.177099
     32          6           0        5.604469   -2.331436   -0.946662
     33          6           0        5.379075   -2.381492    1.422092
     34          6           0        6.916819   -2.790803   -0.845494
     35          6           0        6.688766   -2.841644    1.551076
     36          6           0        7.460122   -3.047476    0.410471
     37          6           0        1.705679    4.157468   -0.115605
     38          6           0        1.994696    4.822510   -1.313659
     39          6           0        1.891749    4.893012    1.061508
     40          6           0        2.443005    6.142263   -1.347961
     41          6           0        2.338202    6.213721    1.056377
     42          6           0        2.614890    6.840427   -0.155745
     43          6           0       -4.543064    1.032883    0.131159
     44          6           0       -5.326424    1.292792   -0.998764
     45          6           0       -5.156716    1.223742    1.374032
     46          6           0       -6.648944    1.723507   -0.905754
     47          6           0       -6.477632    1.652726    1.495074
     48          6           0       -7.226499    1.902783    0.348369
     49          6           0       -4.223913   -4.263791   -0.238449
     50          6           0       -5.212349   -6.355969   -0.652487
     51          1           0       -3.247312   -5.718618   -1.483489
     52          9           0        4.672439   -2.195464    2.548561
     53          9           0        7.214196   -3.086991    2.764411
     54          9           0        8.723643   -3.489184    0.521304
     55          9           0        7.662687   -2.987144   -1.947198
     56          9           0        5.122231   -2.095743   -2.177474
     57          9           0        1.842498    4.190141   -2.488664
     58          9           0        2.709583    6.747900   -2.519014
     59          9           0        3.045858    8.112427   -0.174700
     60          9           0        2.504944    6.888009    2.208352
     61          9           0        1.639635    4.329798    2.254635
     62          9           0       -4.809219    1.135740   -2.228049
     63          9           0       -7.370781    1.969423   -2.013395
     64          9           0       -8.499174    2.319169    0.451413
     65          9           0       -7.034167    1.829343    2.706429
     66          9           0       -4.471369    0.996086    2.506150
     67          1           0       -5.284193   -7.348631   -1.084955
     68          8           0       -1.316011   -5.007308   -0.901714
     69          6           0       -4.111405   -5.478367   -0.882630
     70          6           0       -6.167466   -5.824104    0.174529
     71          1           0       -7.087492   -6.275957    0.520927
     72         16           0       -5.728355   -4.229865    0.691585
     73         78           0        0.125323   -0.539991   -0.139966
     74          1           0        1.152882   -5.662678   -0.441015
 ---------------------------------------------------------------------

 The electronic state is 1-A.
 Alpha  occ. eigenvalues --  -88.81433 -24.70133 -24.70006 -24.69751 -24.69495
 Alpha  occ. eigenvalues --  -24.69481 -24.69375 -24.69370 -24.69120 -24.69117
 Alpha  occ. eigenvalues --  -24.68258 -24.68233 -24.68159 -24.68153 -24.67935
 Alpha  occ. eigenvalues --  -24.67927 -19.01947 -14.28943 -14.28874 -14.28790
 Alpha  occ. eigenvalues --  -14.28647 -10.26293 -10.26174 -10.25924 -10.25560
 Alpha  occ. eigenvalues --  -10.25552 -10.25456 -10.25452 -10.25227 -10.25220
 Alpha  occ. eigenvalues --  -10.25207 -10.25205 -10.25192 -10.25188 -10.24944
 Alpha  occ. eigenvalues --  -10.24940 -10.18005 -10.17997 -10.17760 -10.17056
 Alpha  occ. eigenvalues --  -10.15773 -10.15739 -10.15252 -10.15230 -10.14777
 Alpha  occ. eigenvalues --  -10.14524 -10.14397 -10.14386 -10.14119 -10.13669
 Alpha  occ. eigenvalues --  -10.13647 -10.13571 -10.12745 -10.12323 -10.12261
 Alpha  occ. eigenvalues --  -10.12099 -10.12010 -10.11968 -10.11454 -10.10303
 Alpha  occ. eigenvalues --  -10.10062 -10.09971 -10.09696  -7.88735  -5.85083
 Alpha  occ. eigenvalues --   -5.84721  -5.84378  -3.85817  -2.08475  -2.08393
 Alpha  occ. eigenvalues --   -2.04148  -1.22124  -1.22006  -1.21754  -1.21061
 Alpha  occ. eigenvalues --   -1.20959  -1.20710  -1.20492  -1.20387  -1.20140
 Alpha  occ. eigenvalues --   -1.19349  -1.19296  -1.19266  -1.19212  -1.19031
 Alpha  occ. eigenvalues --   -1.18974  -0.92351  -0.90030  -0.89055  -0.88220
 Alpha  occ. eigenvalues --   -0.87963  -0.85573  -0.85496  -0.85266  -0.79940
 Alpha  occ. eigenvalues --   -0.77816  -0.76886  -0.76308  -0.73236  -0.73159
 Alpha  occ. eigenvalues --   -0.72913  -0.71790  -0.71193  -0.70829  -0.70643
 Alpha  occ. eigenvalues --   -0.70170  -0.69627  -0.68636  -0.65700  -0.65225
 Alpha  occ. eigenvalues --   -0.65015  -0.63363  -0.62485  -0.62320  -0.61513
 Alpha  occ. eigenvalues --   -0.61444  -0.61199  -0.60549  -0.58241  -0.57655
 Alpha  occ. eigenvalues --   -0.55016  -0.54819  -0.54598  -0.54200  -0.54149
 Alpha  occ. eigenvalues --   -0.53905  -0.53460  -0.53219  -0.52925  -0.52742
 Alpha  occ. eigenvalues --   -0.51757  -0.50891  -0.50129  -0.50000  -0.49906
 Alpha  occ. eigenvalues --   -0.49762  -0.49661  -0.49324  -0.49164  -0.48953
 Alpha  occ. eigenvalues --   -0.48567  -0.48012  -0.47860  -0.47684  -0.47526
 Alpha  occ. eigenvalues --   -0.47472  -0.46790  -0.46753  -0.46748  -0.46519
 Alpha  occ. eigenvalues --   -0.46190  -0.44992  -0.44831  -0.44719  -0.44471
 Alpha  occ. eigenvalues --   -0.44159  -0.43952  -0.43730  -0.43390  -0.43330
 Alpha  occ. eigenvalues --   -0.42950  -0.41823  -0.41804  -0.41705  -0.41697
 Alpha  occ. eigenvalues --   -0.41468  -0.41461  -0.40011  -0.39769  -0.39650
 Alpha  occ. eigenvalues --   -0.39646  -0.39481  -0.39397  -0.39293  -0.38990
 Alpha  occ. eigenvalues --   -0.37934  -0.37874  -0.37737  -0.36754  -0.36671
 Alpha  occ. eigenvalues --   -0.36429  -0.35834  -0.35779  -0.35411  -0.35169
 Alpha  occ. eigenvalues --   -0.35053  -0.34882  -0.34561  -0.34245  -0.33936
 Alpha  occ. eigenvalues --   -0.33855  -0.33837  -0.33731  -0.33607  -0.33177
 Alpha  occ. eigenvalues --   -0.32818  -0.32377  -0.32279  -0.31560  -0.31190
 Alpha  occ. eigenvalues --   -0.30917  -0.30653  -0.30545  -0.30075  -0.29997
 Alpha  occ. eigenvalues --   -0.29963  -0.29394  -0.28682  -0.27956  -0.26053
 Alpha  occ. eigenvalues --   -0.25511  -0.25163  -0.24071  -0.22394  -0.22194
 Alpha  occ. eigenvalues --   -0.21978  -0.21761  -0.21552  -0.21475  -0.21066
 Alpha  occ. eigenvalues --   -0.20998  -0.20805  -0.20746  -0.19709  -0.18261
 Alpha  occ. eigenvalues --   -0.17445  -0.17303  -0.16052  -0.15783  -0.15297
 Alpha  occ. eigenvalues --   -0.13841  -0.13221  -0.11991  -0.09857
 Alpha virt. eigenvalues --   -0.01715   0.00307   0.01847   0.01978   0.02056
 Alpha virt. eigenvalues --    0.02209   0.02269   0.02445   0.03011   0.03106
 Alpha virt. eigenvalues --    0.03324   0.03812   0.06579   0.06913   0.07093

 Mulliken charges:
               1
     1  C   -0.030413
     2  C    0.229743
     3  C   -0.042647
     4  C    0.192634
     5  C    0.204028
     6  C   -0.028262
     7  C   -0.092263
     8  C    0.223930
     9  C   -0.107936
    10  C    0.038977
    11  C   -0.216184
    12  C    0.077966
    13  H    0.119516
    14  H    0.114348
    15  H    0.115203
    16  N   -0.104260
    17  N    0.062844
    18  N   -0.080315
    19  N   -0.060045
    20  C   -0.007715
    21  H    0.113566
    22  C    0.047070
    23  H    0.106097
    24  C    0.679083
    25  C   -0.116436
    26  H    0.116942
    27  C    0.055577
    28  C   -0.036165
    29  C   -0.071849
    30  C    0.008822
    31  C   -0.652546
    32  C    0.139438
    33  C    0.160896
    34  C    0.267930
    35  C    0.283765
    36  C    0.528952
    37  C   -0.604343
    38  C    0.061500
    39  C    0.037656
    40  C    0.391416
    41  C    0.371598
    42  C    0.451457
    43  C   -0.727359
    44  C    0.293419
    45  C    0.276013
    46  C    0.159125
    47  C    0.194100
    48  C    0.589822
    49  C   -0.336280
    50  C   -0.214831
    51  H    0.168647
    52  F   -0.281795
    53  F   -0.352005
    54  F   -0.352250
    55  F   -0.351752
    56  F   -0.281630
    57  F   -0.280343
    58  F   -0.355224
    59  F   -0.351168
    60  F   -0.354707
    61  F   -0.280749
    62  F   -0.279814
    63  F   -0.348822
    64  F   -0.352992
    65  F   -0.346906
    66  F   -0.280251
    67  H    0.119593
    68  O   -0.592081
    69  C    0.165567
    70  C   -0.120752
    71  H    0.140905
    72  S   -0.019824
    73  Pt   0.662385
    74  H    0.142385
 Sum of Mulliken charges =  -1.00000

 Dipole moment (field-independent basis, Debye):
    X=              2.0287    Y=              5.3105    Z=              0.7022  Tot=              5.7280
 Quadrupole moment (field-independent basis, Debye-Ang):
   XX=           -465.1499   YY=           -452.9814   ZZ=           -414.9085
   XY=             -5.6273   XZ=             -0.8388   YZ=             -2.4413

 Normal termination of Gaussian 16 at Wed Oct 20 22:08:38 2021.
