 Gaussian 16, Revision C.01,
 Gaussian 16:  ES64L-G16RevC.01  3-Jul-2019

 ----------------------------------------------------------------
 # td=(nstates=75) b3lyp/genecp geom=connectivity scf=maxcyc=1000
 ----------------------------------------------------------------

 -----
 title
 -----
 Symbolic Z-matrix:
 Charge = -1 Multiplicity = 1

                         Standard orientation:
 ---------------------------------------------------------------------
 Center     Atomic      Atomic             Coordinates (Angstroms)
 Number     Number       Type             X           Y           Z
 ---------------------------------------------------------------------
      1          6           0       -1.276848   -2.756837   -0.564856
      2          6           0        1.250301    2.830580   -0.171950
      3          6           0        3.477370    2.530088    0.090578
      4          6           0        2.797890    1.256343    0.043371
      5          6           0        2.777483   -1.241563   -0.035075
      6          6           0        2.510896   -3.470478   -0.398922
      7          6           0        1.260300   -2.763542   -0.564197
      8          6           0       -1.236876    2.839118   -0.180549
      9          6           0       -2.516057    3.512865   -0.097929
     10          6           0       -2.788367   -1.224977   -0.048243
     11          6           0       -3.455590   -2.475783   -0.062817
     12          6           0       -2.795524    1.273419    0.018344
     13          1           0       -4.509821   -2.629968    0.117548
     14          1           0       -2.662060    4.583548   -0.126243
     15          1           0        4.542873    2.666149    0.213295
     16          7           0        1.440494   -1.435066   -0.312547
     17          7           0       -1.451244   -1.426418   -0.319492
     18          7           0        1.443109    1.477722   -0.123676
     19          7           0       -1.437127    1.487162   -0.127195
     20          6           0        2.530458    3.497942   -0.058427
     21          1           0        2.680414    4.568468   -0.070017
     22          6           0        3.438697   -2.495503   -0.053679
     23          1           0        4.491676   -2.655614    0.128808
     24          6           0       -2.531294   -3.456950   -0.399900
     25          6           0       -3.469638    2.550659    0.043983
     26          1           0       -4.536577    2.692593    0.145751
     27          6           0       -0.009714   -3.360168   -0.967964
     28          6           0       -3.415226    0.033623    0.103257
     29          6           0        3.409842    0.012757    0.128705
     30          6           0        0.009092    3.483748   -0.242426
     31          6           0        4.888132   -0.010701    0.369019
     32          6           0        5.808808   -0.008294   -0.684784
     33          6           0        5.419626   -0.049141    1.662764
     34          6           0        7.186004   -0.037566   -0.471180
     35          6           0        6.792345   -0.079826    1.904124
     36          6           0        7.678739   -0.074992    0.830561
     37          6           0        0.017575    4.976704   -0.317702
     38          6           0        0.187719    5.650403   -1.534081
     39          6           0       -0.138744    5.781871    0.817920
     40          6           0        0.202489    7.041554   -1.624551
     41          6           0       -0.130811    7.174521    0.755932
     42          6           0        0.041268    7.806654   -0.472634
     43          6           0       -4.896121    0.019689    0.327761
     44          6           0       -5.805311    0.011100   -0.735948
     45          6           0       -5.441782    0.002019    1.616049
     46          6           0       -7.184839   -0.009155   -0.537012
     47          6           0       -6.817183   -0.019441    1.842814
     48          6           0       -7.691838   -0.026016    0.759684
     49          6           0       -2.862240   -4.881738   -0.442360
     50          6           0       -3.099131   -7.157259   -0.978033
     51          1           0       -1.659259   -5.783142   -1.978851
     52          6           0        2.835558   -4.896467   -0.448423
     53          6           0        3.064973   -7.169464   -0.997851
     54          1           0        1.634190   -5.783227   -1.994757
     55          9           0        4.601359   -0.054136    2.727591
     56          9           0        7.267938   -0.112681    3.161380
     57          9           0        9.003364   -0.101810    1.049553
     58          9           0        8.042133   -0.028554   -1.508017
     59          9           0        5.377909    0.029867   -1.956034
     60          9           0        0.340903    4.955253   -2.673110
     61          9           0        0.366475    7.651726   -2.811938
     62          9           0        0.052034    9.147746   -0.545931
     63          9           0       -0.282844    7.913329    1.869794
     64          9           0       -0.299092    5.217880    2.026789
     65          9           0       -5.360492    0.030017   -2.002869
     66          9           0       -8.029630   -0.010815   -1.583174
     67          9           0       -9.018876   -0.044056    0.964538
     68          9           0       -7.306532   -0.032723    3.095122
     69          9           0       -4.635173    0.008206    2.689683
     70          1           0        2.849580   -8.083985   -1.540709
     71          1           0       -2.885603   -8.076108   -1.514282
     72          8           0       -0.012430   -4.415091   -1.633523
     73          6           0        2.405447   -5.930360   -1.253724
     74          6           0       -2.433565   -5.922542   -1.239504
     75          6           0       -4.035407   -7.068092    0.019175
     76          1           0       -4.671009   -7.847166    0.418655
     77         16           0       -4.110962   -5.461643    0.664732
     78         16           0        4.077855   -5.488600    0.659373
     79          6           0        3.997987   -7.090554    0.003292
     80          1           0        4.628815   -7.874837    0.400134
     81         46           0       -0.001247    0.027204   -0.243099
 ---------------------------------------------------------------------

 SCF Done:  E(RB3LYP) =  -4475.22308012     A.U. after   28 cycles

 Excitation energies and oscillator strengths:

 Excited State   1:      Singlet-A      1.9159 eV  647.12 nm  f=0.1975  <S**2>=0.000
     254 -> 257        0.14504
     255 -> 256        0.68854
 This state for optimization and/or second-order correction.
 Total Energy, E(TD-HF/TD-DFT) =  -4475.15267100
 Copying the excited state density for this state as the 1-particle RhoCI density.

 Excited State   2:      Singlet-A      2.2011 eV  563.30 nm  f=0.0282  <S**2>=0.000
     254 -> 256        0.55965
     255 -> 257       -0.42692

 Excited State   3:      Singlet-A      2.5230 eV  491.41 nm  f=0.0001  <S**2>=0.000
     253 -> 256        0.68940

 Excited State   4:      Singlet-A      2.5983 eV  477.18 nm  f=0.0015  <S**2>=0.000
     255 -> 258        0.11049
     255 -> 264        0.68004

 Excited State   5:      Singlet-A      2.6597 eV  466.17 nm  f=0.2736  <S**2>=0.000
     252 -> 256        0.45891
     254 -> 256       -0.30127
     255 -> 257       -0.38964
     255 -> 258       -0.16973

 Excited State   6:      Singlet-A      2.7539 eV  450.21 nm  f=0.0002  <S**2>=0.000
     252 -> 256        0.20491
     255 -> 258        0.66106

 Excited State   7:      Singlet-A      2.8185 eV  439.90 nm  f=0.0004  <S**2>=0.000
     255 -> 259       -0.38140
     255 -> 260        0.56037
     255 -> 261        0.14822

 Excited State   8:      Singlet-A      2.8344 eV  437.43 nm  f=0.0020  <S**2>=0.000
     255 -> 260       -0.19346
     255 -> 261        0.66489

 Excited State   9:      Singlet-A      2.8984 eV  427.77 nm  f=0.0023  <S**2>=0.000
     255 -> 259        0.58480
     255 -> 260        0.37048
     255 -> 261        0.11645

 Excited State  10:      Singlet-A      2.8987 eV  427.72 nm  f=0.3463  <S**2>=0.000
     254 -> 257        0.66388
     255 -> 256       -0.13769

 Excited State  11:      Singlet-A      2.9854 eV  415.30 nm  f=0.0040  <S**2>=0.000
     255 -> 262        0.69070
     255 -> 263        0.10022

 Excited State  12:      Singlet-A      2.9857 eV  415.27 nm  f=0.0031  <S**2>=0.000
     255 -> 262       -0.10479
     255 -> 263        0.68746

 Excited State  13:      Singlet-A      3.0138 eV  411.39 nm  f=0.4520  <S**2>=0.000
     251 -> 256        0.17860
     252 -> 256        0.39418
     253 -> 257        0.24804
     254 -> 256        0.23470
     255 -> 257        0.33845
     255 -> 268       -0.18828

 Excited State  14:      Singlet-A      3.0933 eV  400.82 nm  f=0.0060  <S**2>=0.000
     255 -> 265        0.50779
     255 -> 266       -0.48391

 Excited State  15:      Singlet-A      3.1010 eV  399.81 nm  f=0.0471  <S**2>=0.000
     252 -> 256       -0.12033
     253 -> 257        0.41928
     254 -> 256       -0.10199
     255 -> 265       -0.33495
     255 -> 266       -0.38424
     255 -> 268        0.11247

 Excited State  16:      Singlet-A      3.1539 eV  393.12 nm  f=0.0116  <S**2>=0.000
     255 -> 267        0.70287

 Excited State  17:      Singlet-A      3.2036 eV  387.01 nm  f=0.1096  <S**2>=0.000
     251 -> 256       -0.10958
     252 -> 256       -0.10057
     253 -> 257        0.25326
     254 -> 264        0.49471
     255 -> 265        0.14574
     255 -> 266        0.14150
     255 -> 268       -0.30104

 Excited State  18:      Singlet-A      3.2096 eV  386.29 nm  f=0.0056  <S**2>=0.000
     248 -> 256       -0.37429
     249 -> 256        0.56886

 Excited State  19:      Singlet-A      3.2109 eV  386.13 nm  f=0.2049  <S**2>=0.000
     252 -> 256        0.15485
     253 -> 257       -0.30894
     254 -> 264        0.44291
     255 -> 257        0.10673
     255 -> 265       -0.19255
     255 -> 266       -0.18758
     255 -> 268        0.22866

 Excited State  20:      Singlet-A      3.2331 eV  383.49 nm  f=0.0021  <S**2>=0.000
     250 -> 256        0.11813
     253 -> 257        0.26384
     255 -> 265        0.22471
     255 -> 266        0.20811
     255 -> 268        0.54264

 Excited State  21:      Singlet-A      3.3135 eV  374.18 nm  f=0.0101  <S**2>=0.000
     235 -> 264       -0.10261
     248 -> 264        0.19539
     249 -> 256        0.15311
     249 -> 264        0.10912
     251 -> 256       -0.19832
     252 -> 257        0.29437
     253 -> 264        0.49138

 Excited State  22:      Singlet-A      3.3146 eV  374.05 nm  f=0.0754  <S**2>=0.000
     250 -> 256       -0.13837
     251 -> 256        0.60928
     252 -> 256       -0.10445
     253 -> 264        0.16388

 Excited State  23:      Singlet-A      3.3308 eV  372.24 nm  f=0.0032  <S**2>=0.000
     252 -> 257        0.15871
     253 -> 264       -0.11496
     254 -> 258        0.63888
     254 -> 261       -0.11559
     254 -> 264       -0.12515

 Excited State  24:      Singlet-A      3.3446 eV  370.70 nm  f=0.0241  <S**2>=0.000
     248 -> 256        0.18510
     252 -> 257        0.51840
     253 -> 264       -0.28024
     254 -> 258       -0.18752

 Excited State  25:      Singlet-A      3.3609 eV  368.90 nm  f=0.0014  <S**2>=0.000
     253 -> 261       -0.10279
     254 -> 259       -0.36837
     254 -> 260        0.56764
     254 -> 261        0.11556

 Excited State  26:      Singlet-A      3.3819 eV  366.61 nm  f=0.0035  <S**2>=0.000
     254 -> 258        0.14540
     254 -> 260       -0.16537
     254 -> 261        0.64800

 Excited State  27:      Singlet-A      3.4125 eV  363.33 nm  f=0.0109  <S**2>=0.000
     248 -> 256        0.46685
     248 -> 264       -0.21800
     249 -> 256        0.25710
     249 -> 264        0.30476
     252 -> 257       -0.14590

 Excited State  28:      Singlet-A      3.4424 eV  360.17 nm  f=0.0000  <S**2>=0.000
     254 -> 259        0.56571
     254 -> 260        0.35198
     254 -> 261        0.12784
     254 -> 262        0.14101

 Excited State  29:      Singlet-A      3.4670 eV  357.62 nm  f=0.0022  <S**2>=0.000
     250 -> 256        0.54662
     250 -> 264        0.11256
     251 -> 264        0.18918
     252 -> 264        0.31363

 Excited State  30:      Singlet-A      3.4854 eV  355.73 nm  f=0.0030  <S**2>=0.000
     233 -> 264        0.12610
     250 -> 256       -0.36927
     250 -> 264        0.15744
     251 -> 264        0.27398
     252 -> 264        0.45299

 Excited State  31:      Singlet-A      3.4996 eV  354.28 nm  f=0.0002  <S**2>=0.000
     254 -> 259       -0.12618
     254 -> 262        0.45846
     254 -> 263        0.47674

 Excited State  32:      Singlet-A      3.5011 eV  354.13 nm  f=0.0001  <S**2>=0.000
     254 -> 259        0.10481
     254 -> 262       -0.46022
     254 -> 263        0.49726

 Excited State  33:      Singlet-A      3.5442 eV  349.82 nm  f=0.0027  <S**2>=0.000
     245 -> 256       -0.11081
     248 -> 256        0.21624
     248 -> 264        0.17458
     249 -> 256        0.17491
     249 -> 264       -0.25455
     250 -> 257       -0.11880
     251 -> 257        0.28090
     252 -> 257       -0.14778
     254 -> 262       -0.16825
     254 -> 265        0.22981
     254 -> 266        0.20226
     254 -> 268        0.10534
     255 -> 269       -0.11820

 Excited State  34:      Singlet-A      3.5754 eV  346.77 nm  f=0.0221  <S**2>=0.000
     245 -> 256       -0.10885
     248 -> 256       -0.14523
     248 -> 264       -0.25696
     249 -> 256       -0.15240
     249 -> 264        0.36167
     250 -> 257       -0.13805
     254 -> 265        0.28632
     254 -> 266        0.25089
     254 -> 268        0.11838

 Excited State  35:      Singlet-A      3.6706 eV  337.78 nm  f=0.0009  <S**2>=0.000
     254 -> 265        0.48732
     254 -> 266       -0.47387
     254 -> 267       -0.14429

 Excited State  36:      Singlet-A      3.6735 eV  337.51 nm  f=0.0021  <S**2>=0.000
     254 -> 266       -0.12128
     254 -> 268        0.16688
     255 -> 269        0.64652

 Excited State  37:      Singlet-A      3.6809 eV  336.83 nm  f=0.0361  <S**2>=0.000
     250 -> 257       -0.18846
     251 -> 257        0.33534
     254 -> 265       -0.25179
     254 -> 266       -0.32653
     254 -> 268        0.27966
     255 -> 269       -0.18253

 Excited State  38:      Singlet-A      3.6840 eV  336.55 nm  f=0.0006  <S**2>=0.000
     253 -> 268        0.10764
     254 -> 265        0.12136
     254 -> 267        0.67618

 Excited State  39:      Singlet-A      3.7236 eV  332.96 nm  f=0.0194  <S**2>=0.000
     247 -> 256        0.12829
     250 -> 257        0.11250
     251 -> 257       -0.29621
     254 -> 268        0.57290

 Excited State  40:      Singlet-A      3.7469 eV  330.90 nm  f=0.0001  <S**2>=0.000
     252 -> 260       -0.15140
     253 -> 258        0.48298
     253 -> 261       -0.44730

 Excited State  41:      Singlet-A      3.7527 eV  330.39 nm  f=0.0004  <S**2>=0.000
     252 -> 261        0.17089
     253 -> 259       -0.31630
     253 -> 260        0.57083

 Excited State  42:      Singlet-A      3.7648 eV  329.33 nm  f=0.0511  <S**2>=0.000
     245 -> 256        0.12822
     247 -> 256        0.58789
     250 -> 257       -0.26910
     254 -> 268       -0.11837

 Excited State  43:      Singlet-A      3.8003 eV  326.25 nm  f=0.0067  <S**2>=0.000
     246 -> 256       -0.19915
     253 -> 258        0.46647
     253 -> 260       -0.11219
     253 -> 261        0.43912

 Excited State  44:      Singlet-A      3.8079 eV  325.60 nm  f=0.0010  <S**2>=0.000
     246 -> 256        0.66283
     253 -> 258        0.15175
     253 -> 261        0.13479

 Excited State  45:      Singlet-A      3.8244 eV  324.19 nm  f=0.0072  <S**2>=0.000
     245 -> 256        0.54477
     247 -> 256       -0.29636
     250 -> 257       -0.25853
     251 -> 257       -0.14507

 Excited State  46:      Singlet-A      3.8391 eV  322.95 nm  f=0.0013  <S**2>=0.000
     248 -> 257       -0.40539
     249 -> 257        0.56735

 Excited State  47:      Singlet-A      3.8497 eV  322.06 nm  f=0.0149  <S**2>=0.000
     252 -> 263        0.10770
     253 -> 259        0.48616
     253 -> 260        0.26147
     253 -> 261        0.10219
     253 -> 262        0.38338

 Excited State  48:      Singlet-A      3.8817 eV  319.40 nm  f=0.0011  <S**2>=0.000
     252 -> 262        0.15921
     253 -> 263        0.67265

 Excited State  49:      Singlet-A      3.8973 eV  318.13 nm  f=0.0160  <S**2>=0.000
     252 -> 263        0.10313
     253 -> 259       -0.38224
     253 -> 260       -0.15602
     253 -> 262        0.54420

 Excited State  50:      Singlet-A      3.9576 eV  313.28 nm  f=0.2756  <S**2>=0.000
     244 -> 256        0.21787
     248 -> 257       -0.19164
     249 -> 257       -0.13770
     253 -> 262       -0.11656
     253 -> 265        0.43523
     253 -> 266        0.38821

 Excited State  51:      Singlet-A      3.9891 eV  310.81 nm  f=0.0725  <S**2>=0.000
     245 -> 256        0.30500
     250 -> 257        0.36824
     251 -> 257        0.30540
     252 -> 257       -0.14221
     252 -> 258       -0.20022
     252 -> 260       -0.15735

 Excited State  52:      Singlet-A      3.9972 eV  310.18 nm  f=0.0138  <S**2>=0.000
     245 -> 256        0.10943
     250 -> 257        0.12874
     251 -> 257        0.10190
     252 -> 258        0.45509
     252 -> 261       -0.42980
     253 -> 260        0.14642
     253 -> 261        0.10800

 Excited State  53:      Singlet-A      4.0040 eV  309.65 nm  f=0.0069  <S**2>=0.000
     250 -> 257        0.10798
     252 -> 259       -0.31002
     252 -> 260        0.54798
     253 -> 261       -0.17469

 Excited State  54:      Singlet-A      4.0478 eV  306.30 nm  f=0.0049  <S**2>=0.000
     244 -> 256        0.11667
     248 -> 257       -0.13519
     252 -> 258        0.42761
     252 -> 260       -0.11420
     252 -> 261        0.43974
     253 -> 267       -0.15623

 Excited State  55:      Singlet-A      4.0510 eV  306.06 nm  f=0.0006  <S**2>=0.000
     244 -> 256        0.37881
     248 -> 257       -0.34574
     249 -> 257       -0.23904
     252 -> 258       -0.13091
     252 -> 261       -0.14902
     253 -> 265       -0.24990
     253 -> 266       -0.19759

 Excited State  56:      Singlet-A      4.0689 eV  304.71 nm  f=0.0000  <S**2>=0.000
     252 -> 258        0.13576
     252 -> 261        0.11872
     252 -> 268       -0.14941
     253 -> 267        0.64096
     254 -> 268       -0.10558

 Excited State  57:      Singlet-A      4.0946 eV  302.80 nm  f=0.0042  <S**2>=0.000
     244 -> 256        0.11436
     248 -> 257        0.14298
     249 -> 257        0.10519
     252 -> 267       -0.20156
     253 -> 268        0.62200

 Excited State  58:      Singlet-A      4.1011 eV  302.32 nm  f=0.0005  <S**2>=0.000
     252 -> 259        0.50196
     252 -> 260        0.28459
     252 -> 261        0.11269
     252 -> 262        0.33280
     253 -> 263       -0.12765

 Excited State  59:      Singlet-A      4.1060 eV  301.96 nm  f=0.0079  <S**2>=0.000
     244 -> 256        0.46403
     248 -> 257        0.33258
     249 -> 257        0.24170
     253 -> 266        0.13513
     253 -> 268       -0.17153
     254 -> 269        0.18495

 Excited State  60:      Singlet-A      4.1067 eV  301.91 nm  f=0.0062  <S**2>=0.000
     253 -> 265       -0.45265
     253 -> 266        0.49716

 Excited State  61:      Singlet-A      4.1368 eV  299.71 nm  f=0.0032  <S**2>=0.000
     251 -> 264       -0.13989
     252 -> 263        0.65271
     253 -> 262       -0.14583

 Excited State  62:      Singlet-A      4.1459 eV  299.05 nm  f=0.0040  <S**2>=0.000
     233 -> 264        0.10367
     250 -> 264        0.19490
     251 -> 264        0.44898
     252 -> 263        0.17822
     252 -> 264       -0.39755

 Excited State  63:      Singlet-A      4.1489 eV  298.84 nm  f=0.0007  <S**2>=0.000
     252 -> 259       -0.33700
     252 -> 260       -0.13748
     252 -> 262        0.58099

 Excited State  64:      Singlet-A      4.1837 eV  296.35 nm  f=0.2233  <S**2>=0.000
     245 -> 257       -0.15118
     247 -> 257       -0.16000
     254 -> 269        0.36915
     255 -> 270        0.29012
     255 -> 271       -0.34695
     255 -> 272       -0.16787
     255 -> 273       -0.15664

 Excited State  65:      Singlet-A      4.2247 eV  293.48 nm  f=0.0156  <S**2>=0.000
     252 -> 262       -0.11411
     252 -> 265        0.49323
     252 -> 266        0.43781
     252 -> 268        0.11848

 Excited State  66:      Singlet-A      4.2353 eV  292.74 nm  f=0.0544  <S**2>=0.000
     244 -> 256       -0.11478
     254 -> 269        0.50088
     255 -> 270       -0.40252
     255 -> 271        0.13369
     255 -> 273        0.10173

 Excited State  67:      Singlet-A      4.2527 eV  291.54 nm  f=0.0009  <S**2>=0.000
     234 -> 264       -0.19869
     248 -> 264        0.28927
     249 -> 264        0.21618
     253 -> 264       -0.19126
     254 -> 269        0.13218
     255 -> 270        0.33211
     255 -> 271        0.31853
     255 -> 272        0.11935

 Excited State  68:      Singlet-A      4.2547 eV  291.41 nm  f=0.0014  <S**2>=0.000
     234 -> 264        0.21002
     248 -> 264       -0.29935
     249 -> 264       -0.22149
     253 -> 264        0.19589
     254 -> 269        0.13441
     255 -> 270        0.32786
     255 -> 271        0.27715
     255 -> 272        0.14004

 Excited State  69:      Singlet-A      4.2936 eV  288.76 nm  f=0.0003  <S**2>=0.000
     255 -> 270        0.14442
     255 -> 271       -0.21723
     255 -> 273        0.62738

 Excited State  70:      Singlet-A      4.3229 eV  286.81 nm  f=0.0053  <S**2>=0.000
     252 -> 267        0.65408
     253 -> 268        0.18582

 Excited State  71:      Singlet-A      4.3300 eV  286.34 nm  f=0.0008  <S**2>=0.000
     243 -> 256        0.13166
     255 -> 271       -0.23374
     255 -> 272        0.55037
     255 -> 274        0.31929

 Excited State  72:      Singlet-A      4.3466 eV  285.24 nm  f=0.0020  <S**2>=0.000
     252 -> 268        0.66361
     253 -> 267        0.16419

 Excited State  73:      Singlet-A      4.3500 eV  285.02 nm  f=0.0009  <S**2>=0.000
     252 -> 265        0.12097
     252 -> 266       -0.14103
     255 -> 272       -0.27173
     255 -> 273        0.11264
     255 -> 274        0.57356
     255 -> 275        0.13404

 Excited State  74:      Singlet-A      4.3530 eV  284.83 nm  f=0.0004  <S**2>=0.000
     252 -> 265       -0.44697
     252 -> 266        0.49687
     255 -> 274        0.17239

 Excited State  75:      Singlet-A      4.3563 eV  284.61 nm  f=0.0007  <S**2>=0.000
     255 -> 274       -0.11669
     255 -> 275        0.66935

 The electronic state is 1-A.
 Alpha  occ. eigenvalues --  -88.81784 -88.81779 -24.70176 -24.69908 -24.69904
 Alpha  occ. eigenvalues --  -24.69552 -24.69527 -24.69281 -24.69279 -24.69278
 Alpha  occ. eigenvalues --  -24.69273 -24.68332 -24.68288 -24.68115 -24.68114
 Alpha  occ. eigenvalues --  -24.68113 -24.68105 -19.03482 -14.28379 -14.28373
 Alpha  occ. eigenvalues --  -14.28058 -14.28052 -10.26331 -10.26094 -10.26089
 Alpha  occ. eigenvalues --  -10.25617 -10.25602 -10.25378 -10.25377 -10.25374
 Alpha  occ. eigenvalues --  -10.25371 -10.25280 -10.25266 -10.25130 -10.25126
 Alpha  occ. eigenvalues --  -10.25125 -10.25121 -10.18130 -10.18076 -10.17950
 Alpha  occ. eigenvalues --  -10.17944 -10.15978 -10.15972 -10.15444 -10.15437
 Alpha  occ. eigenvalues --  -10.14864 -10.14857 -10.14618 -10.14613 -10.14444
 Alpha  occ. eigenvalues --  -10.14441 -10.14166 -10.14162 -10.13853 -10.13848
 Alpha  occ. eigenvalues --  -10.13780 -10.12503 -10.12495 -10.12337 -10.12334
 Alpha  occ. eigenvalues --  -10.12236 -10.12232 -10.11770 -10.11765 -10.10481
 Alpha  occ. eigenvalues --  -10.10472 -10.10442 -10.10438  -7.89073  -7.89068
 Alpha  occ. eigenvalues --   -5.85421  -5.85417  -5.85058  -5.85053  -5.84717
 Alpha  occ. eigenvalues --   -5.84712  -3.29961  -2.03104  -2.03039  -1.98860
 Alpha  occ. eigenvalues --   -1.22170  -1.21918  -1.21913  -1.21116  -1.20879
 Alpha  occ. eigenvalues --   -1.20874  -1.20544  -1.20309  -1.20305  -1.19410
 Alpha  occ. eigenvalues --   -1.19350  -1.19210  -1.19205  -1.19150  -1.19145
 Alpha  occ. eigenvalues --   -0.93747  -0.89981  -0.89111  -0.88601  -0.88196
 Alpha  occ. eigenvalues --   -0.85612  -0.85442  -0.85429  -0.80282  -0.80276
 Alpha  occ. eigenvalues --   -0.77862  -0.76953  -0.76349  -0.73288  -0.73088
 Alpha  occ. eigenvalues --   -0.73083  -0.71868  -0.71357  -0.71202  -0.70732
 Alpha  occ. eigenvalues --   -0.70573  -0.70103  -0.69610  -0.66015  -0.65920
 Alpha  occ. eigenvalues --   -0.65509  -0.65448  -0.63817  -0.63382  -0.62532
 Alpha  occ. eigenvalues --   -0.62419  -0.61563  -0.61373  -0.61368  -0.60615
 Alpha  occ. eigenvalues --   -0.58379  -0.57890  -0.55073  -0.54786  -0.54744
 Alpha  occ. eigenvalues --   -0.54253  -0.54084  -0.54077  -0.53658  -0.53483
 Alpha  occ. eigenvalues --   -0.53123  -0.52847  -0.52125  -0.51463  -0.50666
 Alpha  occ. eigenvalues --   -0.50051  -0.49862  -0.49830  -0.49826  -0.49698
 Alpha  occ. eigenvalues --   -0.49385  -0.49331  -0.49147  -0.48221  -0.48192
 Alpha  occ. eigenvalues --   -0.47772  -0.47712  -0.47692  -0.47502  -0.46987
 Alpha  occ. eigenvalues --   -0.46840  -0.46698  -0.46693  -0.46638  -0.45943
 Alpha  occ. eigenvalues --   -0.44888  -0.44640  -0.44635  -0.44374  -0.44167
 Alpha  occ. eigenvalues --   -0.44078  -0.43975  -0.43491  -0.43435  -0.43135
 Alpha  occ. eigenvalues --   -0.41894  -0.41861  -0.41642  -0.41639  -0.41630
 Alpha  occ. eigenvalues --   -0.41624  -0.40108  -0.40067  -0.39815  -0.39558
 Alpha  occ. eigenvalues --   -0.39551  -0.39541  -0.39432  -0.39335  -0.39097
 Alpha  occ. eigenvalues --   -0.38137  -0.37832  -0.37812  -0.36804  -0.36604
 Alpha  occ. eigenvalues --   -0.36593  -0.36307  -0.35839  -0.35386  -0.35164
 Alpha  occ. eigenvalues --   -0.35030  -0.34888  -0.34804  -0.34357  -0.34000
 Alpha  occ. eigenvalues --   -0.33924  -0.33800  -0.33756  -0.33641  -0.33105
 Alpha  occ. eigenvalues --   -0.32877  -0.32649  -0.32435  -0.32306  -0.32180
 Alpha  occ. eigenvalues --   -0.31454  -0.31426  -0.30880  -0.30802  -0.30678
 Alpha  occ. eigenvalues --   -0.30481  -0.30222  -0.30149  -0.29820  -0.29643
 Alpha  occ. eigenvalues --   -0.28730  -0.28493  -0.26354  -0.26321  -0.24904
 Alpha  occ. eigenvalues --   -0.24789  -0.24327  -0.22866  -0.22833  -0.22761
 Alpha  occ. eigenvalues --   -0.22024  -0.21771  -0.21751  -0.21627  -0.21144
 Alpha  occ. eigenvalues --   -0.20934  -0.20921  -0.20159  -0.19144  -0.17921
 Alpha  occ. eigenvalues --   -0.17718  -0.17555  -0.17054  -0.16981  -0.16911
 Alpha  occ. eigenvalues --   -0.16353  -0.14333  -0.13336  -0.11989  -0.10186
 Alpha virt. eigenvalues --   -0.02103   0.00039   0.01819   0.01932   0.02093
 Alpha virt. eigenvalues --    0.02115   0.02285   0.02291   0.02607   0.02938
 Alpha virt. eigenvalues --    0.02951   0.03148   0.03288   0.05035   0.06727

 Mulliken charges:
               1
     1  C    0.088759
     2  C    0.204417
     3  C   -0.225377
     4  C    0.420666
     5  C    0.049240
     6  C    0.402224
     7  C    0.083170
     8  C    0.226225
     9  C   -0.308143
    10  C    0.046198
    11  C   -0.529539
    12  C    0.421891
    13  H    0.121539
    14  H    0.115379
    15  H    0.117488
    16  N    0.354689
    17  N    0.354363
    18  N    0.217655
    19  N    0.219248
    20  C   -0.303927
    21  H    0.115081
    22  C   -0.532008
    23  H    0.121553
    24  C    0.402350
    25  C   -0.230175
    26  H    0.117542
    27  C    0.025649
    28  C    0.270065
    29  C    0.279561
    30  C    0.119553
    31  C   -0.734874
    32  C    0.257849
    33  C    0.269724
    34  C    0.193662
    35  C    0.245195
    36  C    0.553642
    37  C   -0.624723
    38  C    0.091254
    39  C    0.008977
    40  C    0.373905
    41  C    0.353107
    42  C    0.460798
    43  C   -0.725725
    44  C    0.250478
    45  C    0.252450
    46  C    0.197878
    47  C    0.252936
    48  C    0.548811
    49  C   -0.526423
    50  C   -0.293988
    51  H    0.164884
    52  C   -0.523182
    53  C   -0.292839
    54  H    0.164692
    55  F   -0.278608
    56  F   -0.349939
    57  F   -0.351708
    58  F   -0.350327
    59  F   -0.276941
    60  F   -0.279164
    61  F   -0.355332
    62  F   -0.351168
    63  F   -0.354286
    64  F   -0.281111
    65  F   -0.276646
    66  F   -0.350299
    67  F   -0.351683
    68  F   -0.350059
    69  F   -0.278909
    70  H    0.120235
    71  H    0.120236
    72  O   -0.551056
    73  C    0.291747
    74  C    0.297740
    75  C   -0.096834
    76  H    0.142093
    77  S    0.017919
    78  S    0.017021
    79  C   -0.097858
    80  H    0.142093
    81  Pd  -0.250982
 Sum of Mulliken charges =  -1.00000

 Dipole moment (field-independent basis, Debye):
    X=              0.0120    Y=              3.7877    Z=              0.9146  Tot=              3.8966
 Quadrupole moment (field-independent basis, Debye-Ang):
   XX=           -498.6288   YY=           -484.9421   ZZ=           -448.7969
   XY=             -0.0651   XZ=              1.2831   YZ=             -1.8814

 Normal termination of Gaussian 16 at Sat Sep  3 23:26:19 2022.
