 Gaussian 16, Revision C.01,
 Gaussian 16:  ES64L-G16RevC.01  3-Jul-2019

 ----------------------------------------------------------------
 # td=(nstates=75) b3lyp/genecp geom=connectivity scf=maxcyc=1000
 ----------------------------------------------------------------

 -----
 title
 -----
 Symbolic Z-matrix:
 Charge =  0 Multiplicity = 1

                         Standard orientation:
 ---------------------------------------------------------------------
 Center     Atomic      Atomic             Coordinates (Angstroms)
 Number     Number       Type             X           Y           Z
 ---------------------------------------------------------------------
      1          6           0       -1.978720   -2.819421   -0.089517
      2          6           0        2.193758    1.709433   -0.038827
      3          6           0        4.223110    0.722105   -0.035580
      4          6           0        3.174732   -0.273034    0.004480
      5          6           0        2.372391   -2.622625    0.082789
      6          6           0        1.366769   -4.641739    0.168712
      7          6           0        0.396519   -3.589573    0.071293
      8          6           0       -0.154986    2.508080   -0.017476
      9          6           0       -1.149596    3.560300    0.007623
     10          6           0       -2.934143   -0.824884   -0.043502
     11          6           0       -3.984865   -1.791195   -0.125812
     12          6           0       -2.139774    1.532346    0.010235
     13          1           0       -5.040202   -1.571827   -0.188145
     14          1           0       -0.934905    4.618440    0.003913
     15          1           0        5.281588    0.509112   -0.048782
     16          7           0        1.026410   -2.372774    0.025339
     17          7           0       -1.725191   -1.466358   -0.031851
     18          7           0        1.951557    0.361643   -0.003717
     19          7           0       -0.783949    1.291403   -0.015581
     20          6           0        3.622330    1.938051   -0.058010
     21          1           0        4.096291    2.907901   -0.079738
     22          6           0        2.591610   -4.043374    0.174809
     23          1           0        3.557308   -4.521531    0.244017
     24          6           0       -3.410962   -3.036807   -0.176270
     25          6           0       -2.365728    2.962097    0.033709
     26          1           0       -3.334259    3.438208    0.066752
     27          6           0       -0.987472   -3.813917    0.008462
     28          6           0       -3.144110    0.570469   -0.002038
     29          6           0        3.388237   -1.648846    0.055797
     30          6           0        1.227809    2.724207   -0.040624
     31          6           0        4.802045   -2.133155    0.087926
     32          6           0        5.388402   -2.743307   -1.026090
     33          6           0        5.594073   -2.002839    1.233539
     34          6           0        6.702343   -3.205560   -1.007575
     35          6           0        6.911879   -2.453261    1.274221
     36          6           0        7.466148   -3.058034    0.148287
     37          6           0        1.709545    4.139329   -0.063376
     38          6           0        2.225554    4.715778   -1.228843
     39          6           0        1.665924    4.945083    1.079289
     40          6           0        2.681791    6.031730   -1.262239
     41          6           0        2.110043    6.265571    1.069018
     42          6           0        2.621425    6.808873   -0.107526
     43          6           0       -4.561635    1.044700    0.021475
     44          6           0       -5.157851    1.628989   -1.101101
     45          6           0       -5.352849    0.916879    1.168299
     46          6           0       -6.478337    2.073236   -1.088063
     47          6           0       -6.676791    1.348581    1.203636
     48          6           0       -7.239819    1.930388    0.069730
     49          6           0       -4.153614   -4.295948   -0.304960
     50          6           0       -5.016411   -6.327774   -1.106286
     51          1           0       -3.326185   -5.253670   -2.065646
     52          9           0        5.090449   -1.430048    2.334415
     53          9           0        7.643659   -2.314068    2.384860
     54          9           0        8.727090   -3.494981    0.176465
     55          9           0        7.235349   -3.782706   -2.089789
     56          9           0        4.682395   -2.896473   -2.153650
     57          9           0        2.295237    3.996178   -2.356375
     58          9           0        3.170374    6.553674   -2.392476
     59          9           0        3.052659    8.072026   -0.128441
     60          9           0        2.054082    7.010550    2.178277
     61          9           0        1.182080    4.452242    2.226942
     62          9           0       -4.455492    1.776670   -2.231948
     63          9           0       -7.019405    2.628365   -2.177757
     64          9           0       -8.506621    2.350175    0.092741
     65          9           0       -7.406460    1.213797    2.316102
     66          9           0       -4.840566    0.364131    2.275402
     67          1           0       -5.086316   -7.185833   -1.764586
     68          6           0       -4.051112   -5.289390   -1.259691
     69          6           0       -5.854722   -6.118201   -0.045552
     70          1           0       -6.667788   -6.742800    0.298182
     71         16           0       -5.472356   -4.653481    0.794335
     72         46           0        0.118043   -0.544615   -0.006332
     73          8           0       -1.318330   -5.126134    0.059275
     74          1           0       -2.283938   -5.240916    0.040766
     75          1           0        1.129860   -5.693264    0.222525
 ---------------------------------------------------------------------

 SCF Done:  E(RB3LYP) =  -3923.90922282     A.U. after   27 cycles

 Excitation energies and oscillator strengths:

 Excited State   1:      Singlet-A      2.2893 eV  541.58 nm  f=0.0590  <S**2>=0.000
     233 -> 236       -0.36044
     234 -> 235        0.60419
 This state for optimization and/or second-order correction.
 Total Energy, E(TD-HF/TD-DFT) =  -3923.82509207
 Copying the excited state density for this state as the 1-particle RhoCI density.

 Excited State   2:      Singlet-A      2.3687 eV  523.42 nm  f=0.0002  <S**2>=0.000
     233 -> 235        0.49498
     234 -> 236        0.50084

 Excited State   3:      Singlet-A      2.8707 eV  431.90 nm  f=0.0344  <S**2>=0.000
     230 -> 235       -0.11884
     231 -> 235       -0.14094
     232 -> 235        0.65530

 Excited State   4:      Singlet-A      2.9974 eV  413.64 nm  f=0.0508  <S**2>=0.000
     231 -> 235        0.58868
     231 -> 236        0.16892
     232 -> 236       -0.28683
     233 -> 236        0.11686

 Excited State   5:      Singlet-A      3.0626 eV  404.84 nm  f=0.0530  <S**2>=0.000
     233 -> 235        0.12251
     234 -> 236       -0.11233
     234 -> 237        0.67408

 Excited State   6:      Singlet-A      3.1179 eV  397.65 nm  f=0.8427  <S**2>=0.000
     230 -> 235        0.12048
     231 -> 235       -0.13186
     231 -> 236       -0.14219
     232 -> 235       -0.13223
     233 -> 235       -0.16805
     233 -> 236        0.50424
     234 -> 235        0.28944
     234 -> 236        0.17689

 Excited State   7:      Singlet-A      3.1520 eV  393.35 nm  f=0.3031  <S**2>=0.000
     229 -> 237       -0.12729
     231 -> 236        0.45185
     232 -> 236        0.27148
     233 -> 235       -0.28616
     234 -> 236        0.28671
     234 -> 237        0.10093

 Excited State   8:      Singlet-A      3.1789 eV  390.02 nm  f=0.5328  <S**2>=0.000
     229 -> 237       -0.10393
     231 -> 236        0.37915
     233 -> 235        0.32106
     233 -> 236        0.25124
     234 -> 235        0.16173
     234 -> 236       -0.31225

 Excited State   9:      Singlet-A      3.2518 eV  381.27 nm  f=0.0088  <S**2>=0.000
     229 -> 235        0.67715
     230 -> 235        0.16784

 Excited State  10:      Singlet-A      3.2821 eV  377.76 nm  f=0.0542  <S**2>=0.000
     231 -> 235        0.30872
     231 -> 236       -0.24737
     232 -> 236        0.54479

 Excited State  11:      Singlet-A      3.3750 eV  367.36 nm  f=0.0044  <S**2>=0.000
     233 -> 237        0.68348
     233 -> 238       -0.11385

 Excited State  12:      Singlet-A      3.4629 eV  358.04 nm  f=0.0277  <S**2>=0.000
     229 -> 236        0.47746
     229 -> 237       -0.14333
     230 -> 235       -0.38898
     230 -> 236        0.14291
     231 -> 237        0.14399
     232 -> 235       -0.10450

 Excited State  13:      Singlet-A      3.4740 eV  356.89 nm  f=0.0244  <S**2>=0.000
     229 -> 235       -0.13024
     229 -> 236        0.38201
     230 -> 235        0.47485
     231 -> 237        0.24723

 Excited State  14:      Singlet-A      3.4852 eV  355.74 nm  f=0.0024  <S**2>=0.000
     217 -> 237       -0.16881
     229 -> 236        0.12703
     230 -> 237       -0.16705
     231 -> 237       -0.37653
     232 -> 237        0.47764

 Excited State  15:      Singlet-A      3.5225 eV  351.98 nm  f=0.0006  <S**2>=0.000
     215 -> 237       -0.15989
     229 -> 236       -0.26970
     230 -> 237       -0.20978
     231 -> 237        0.44801
     232 -> 237        0.35232

 Excited State  16:      Singlet-A      3.5644 eV  347.84 nm  f=0.0018  <S**2>=0.000
     229 -> 237        0.58796
     229 -> 238       -0.11195
     230 -> 235       -0.13330
     230 -> 236        0.17212
     230 -> 237        0.12073
     231 -> 236        0.15544
     234 -> 238        0.13619

 Excited State  17:      Singlet-A      3.6219 eV  342.32 nm  f=0.0587  <S**2>=0.000
     229 -> 237       -0.14048
     234 -> 237        0.11066
     234 -> 238        0.65869

 Excited State  18:      Singlet-A      3.7048 eV  334.65 nm  f=0.0426  <S**2>=0.000
     229 -> 236       -0.17286
     229 -> 237       -0.13861
     230 -> 236        0.63642

 Excited State  19:      Singlet-A      3.8427 eV  322.65 nm  f=0.0574  <S**2>=0.000
     224 -> 235        0.10518
     226 -> 235        0.28102
     227 -> 235        0.10012
     228 -> 235        0.59277

 Excited State  20:      Singlet-A      3.8855 eV  319.10 nm  f=0.0183  <S**2>=0.000
     223 -> 235        0.14667
     233 -> 237        0.10572
     233 -> 238        0.64738
     234 -> 240        0.10883

 Excited State  21:      Singlet-A      3.9359 eV  315.01 nm  f=0.0125  <S**2>=0.000
     234 -> 239        0.67777

 Excited State  22:      Singlet-A      3.9440 eV  314.36 nm  f=0.0019  <S**2>=0.000
     226 -> 235        0.50039
     227 -> 235       -0.44001
     228 -> 235       -0.17123

 Excited State  23:      Singlet-A      3.9759 eV  311.84 nm  f=0.0016  <S**2>=0.000
     225 -> 235       -0.34723
     227 -> 235       -0.10813
     234 -> 240        0.57374

 Excited State  24:      Singlet-A      3.9803 eV  311.49 nm  f=0.0008  <S**2>=0.000
     225 -> 235        0.58718
     228 -> 235        0.10215
     234 -> 240        0.30543
     234 -> 241        0.11381

 Excited State  25:      Singlet-A      3.9909 eV  310.66 nm  f=0.0032  <S**2>=0.000
     226 -> 235        0.30125
     227 -> 235        0.42241
     228 -> 235       -0.22177
     234 -> 240        0.17699
     234 -> 241       -0.36556

 Excited State  26:      Singlet-A      3.9977 eV  310.14 nm  f=0.0049  <S**2>=0.000
     226 -> 235        0.20681
     227 -> 235        0.29740
     228 -> 235       -0.14035
     234 -> 241        0.57758

 Excited State  27:      Singlet-A      4.0472 eV  306.35 nm  f=0.0495  <S**2>=0.000
     220 -> 235        0.11047
     226 -> 235       -0.10561
     226 -> 236        0.29414
     228 -> 236        0.57118

 Excited State  28:      Singlet-A      4.0643 eV  305.06 nm  f=0.0431  <S**2>=0.000
     221 -> 235       -0.12481
     223 -> 235        0.39717
     224 -> 235        0.51701
     233 -> 238       -0.11646

 Excited State  29:      Singlet-A      4.1049 eV  302.04 nm  f=0.0001  <S**2>=0.000
     222 -> 235       -0.11142
     223 -> 235        0.49075
     224 -> 235       -0.43586
     228 -> 236        0.11093

 Excited State  30:      Singlet-A      4.1230 eV  300.71 nm  f=0.0067  <S**2>=0.000
     221 -> 235       -0.12370
     222 -> 235        0.66516

 Excited State  31:      Singlet-A      4.1684 eV  297.44 nm  f=0.0012  <S**2>=0.000
     226 -> 236        0.35960
     227 -> 236        0.53585
     228 -> 236       -0.24079

 Excited State  32:      Singlet-A      4.1947 eV  295.58 nm  f=0.0015  <S**2>=0.000
     221 -> 235        0.53638
     222 -> 235        0.11797
     233 -> 239       -0.13077
     234 -> 242        0.30104
     234 -> 243       -0.19328

 Excited State  33:      Singlet-A      4.1971 eV  295.41 nm  f=0.0005  <S**2>=0.000
     221 -> 235       -0.31210
     223 -> 235       -0.12224
     223 -> 236       -0.16276
     233 -> 239        0.21732
     233 -> 240        0.11593
     234 -> 242        0.41186
     234 -> 243       -0.26750

 Excited State  34:      Singlet-A      4.2138 eV  294.24 nm  f=0.0132  <S**2>=0.000
     221 -> 235        0.21203
     233 -> 239        0.63152
     233 -> 240       -0.10519
     234 -> 242       -0.10440

 Excited State  35:      Singlet-A      4.2385 eV  292.52 nm  f=0.0047  <S**2>=0.000
     220 -> 235        0.24643
     226 -> 236        0.29575
     227 -> 236       -0.29827
     228 -> 236       -0.18504
     234 -> 242        0.34340
     234 -> 243        0.27108

 Excited State  36:      Singlet-A      4.2441 eV  292.13 nm  f=0.0310  <S**2>=0.000
     220 -> 235        0.44315
     227 -> 236       -0.12808
     233 -> 240        0.10152
     233 -> 241       -0.10233
     234 -> 242       -0.21825
     234 -> 243       -0.39832

 Excited State  37:      Singlet-A      4.2460 eV  292.00 nm  f=0.0251  <S**2>=0.000
     220 -> 235       -0.37773
     225 -> 236       -0.10878
     226 -> 236        0.38979
     227 -> 236       -0.29311
     234 -> 242       -0.11285
     234 -> 243       -0.21328

 Excited State  38:      Singlet-A      4.2599 eV  291.05 nm  f=0.0007  <S**2>=0.000
     225 -> 236        0.13877
     233 -> 240        0.64353
     234 -> 243        0.11706

 Excited State  39:      Singlet-A      4.2708 eV  290.30 nm  f=0.0013  <S**2>=0.000
     225 -> 236        0.63880
     234 -> 243       -0.16580

 Excited State  40:      Singlet-A      4.2779 eV  289.83 nm  f=0.0017  <S**2>=0.000
     225 -> 236       -0.16064
     233 -> 241       -0.24388
     234 -> 244        0.49809
     234 -> 245        0.30142
     234 -> 246        0.22862

 Excited State  41:      Singlet-A      4.2851 eV  289.34 nm  f=0.0044  <S**2>=0.000
     224 -> 236        0.30086
     233 -> 241        0.57507
     234 -> 243       -0.10868
     234 -> 244        0.11070
     234 -> 245        0.12822

 Excited State  42:      Singlet-A      4.2895 eV  289.04 nm  f=0.0191  <S**2>=0.000
     220 -> 235       -0.15910
     224 -> 236        0.56767
     233 -> 241       -0.27388
     234 -> 244       -0.10965
     234 -> 245       -0.11814

 Excited State  43:      Singlet-A      4.2897 eV  289.03 nm  f=0.0014  <S**2>=0.000
     234 -> 244       -0.42807
     234 -> 245        0.45428
     234 -> 246        0.23588
     234 -> 247        0.13530

 Excited State  44:      Singlet-A      4.3169 eV  287.21 nm  f=0.0051  <S**2>=0.000
     223 -> 236       -0.14929
     234 -> 245       -0.23284
     234 -> 246        0.45175
     234 -> 247       -0.31997
     234 -> 248        0.30560

 Excited State  45:      Singlet-A      4.3289 eV  286.41 nm  f=0.0060  <S**2>=0.000
     222 -> 236        0.12770
     223 -> 236        0.37570
     234 -> 244        0.10240
     234 -> 245       -0.11066
     234 -> 247        0.34149
     234 -> 248        0.36954

 Excited State  46:      Singlet-A      4.3382 eV  285.80 nm  f=0.0123  <S**2>=0.000
     222 -> 236        0.10721
     223 -> 236        0.40248
     224 -> 236       -0.10843
     232 -> 238       -0.23934
     234 -> 244       -0.10232
     234 -> 247       -0.36721
     234 -> 248       -0.24590

 Excited State  47:      Singlet-A      4.3486 eV  285.11 nm  f=0.0028  <S**2>=0.000
     234 -> 245        0.26907
     234 -> 246       -0.37044
     234 -> 247       -0.31416
     234 -> 248        0.41670

 Excited State  48:      Singlet-A      4.3700 eV  283.72 nm  f=0.0353  <S**2>=0.000
     219 -> 235        0.46122
     221 -> 236        0.12411
     222 -> 236       -0.42691
     223 -> 236        0.15424

 Excited State  49:      Singlet-A      4.3800 eV  283.07 nm  f=0.1242  <S**2>=0.000
     219 -> 235       -0.12202
     221 -> 236        0.13691
     223 -> 236        0.18497
     232 -> 237        0.10664
     232 -> 238        0.59560

 Excited State  50:      Singlet-A      4.4189 eV  280.58 nm  f=0.0131  <S**2>=0.000
     219 -> 235        0.28772
     222 -> 236        0.43179
     231 -> 238        0.21660
     233 -> 242        0.27591
     233 -> 243       -0.25134

 Excited State  51:      Singlet-A      4.4604 eV  277.97 nm  f=0.0436  <S**2>=0.000
     216 -> 237       -0.20119
     220 -> 236        0.25264
     221 -> 236        0.51832
     222 -> 236        0.10265
     223 -> 236       -0.12133
     230 -> 237        0.18519
     231 -> 238       -0.14323

 Excited State  52:      Singlet-A      4.4654 eV  277.65 nm  f=0.0161  <S**2>=0.000
     216 -> 237        0.38263
     221 -> 236        0.13076
     230 -> 237       -0.32451
     231 -> 237       -0.11040
     231 -> 238       -0.35984
     232 -> 237       -0.16462

 Excited State  53:      Singlet-A      4.4737 eV  277.14 nm  f=0.0792  <S**2>=0.000
     216 -> 237        0.28132
     219 -> 235       -0.22647
     220 -> 236        0.10451
     221 -> 236        0.23776
     230 -> 237       -0.11673
     231 -> 238        0.47442

 Excited State  54:      Singlet-A      4.5005 eV  275.49 nm  f=0.0138  <S**2>=0.000
     216 -> 237       -0.10694
     219 -> 235       -0.16929
     220 -> 236        0.38047
     221 -> 236       -0.14783
     222 -> 236       -0.11963
     233 -> 242        0.47263

 Excited State  55:      Singlet-A      4.5107 eV  274.87 nm  f=0.0043  <S**2>=0.000
     220 -> 236        0.42574
     221 -> 236       -0.21163
     233 -> 242       -0.39220
     233 -> 243       -0.29749

 Excited State  56:      Singlet-A      4.5151 eV  274.60 nm  f=0.0156  <S**2>=0.000
     216 -> 237        0.41947
     220 -> 236        0.14299
     221 -> 236       -0.10908
     228 -> 237       -0.10205
     230 -> 237        0.41060
     232 -> 237        0.19699

 Excited State  57:      Singlet-A      4.5368 eV  273.29 nm  f=0.0061  <S**2>=0.000
     218 -> 236       -0.10497
     219 -> 235        0.15258
     220 -> 236        0.19671
     221 -> 236       -0.12092
     222 -> 236        0.17604
     230 -> 237       -0.10820
     231 -> 238        0.11715
     233 -> 243        0.54089

 Excited State  58:      Singlet-A      4.5580 eV  272.01 nm  f=0.0001  <S**2>=0.000
     233 -> 243       -0.12215
     233 -> 244        0.46070
     233 -> 245        0.40501
     233 -> 246        0.29839

 Excited State  59:      Singlet-A      4.5695 eV  271.33 nm  f=0.0000  <S**2>=0.000
     233 -> 244        0.51372
     233 -> 245       -0.39318
     233 -> 246       -0.24237

 Excited State  60:      Singlet-A      4.6049 eV  269.25 nm  f=0.0002  <S**2>=0.000
     233 -> 245       -0.31874
     233 -> 246        0.48287
     233 -> 247       -0.31879
     233 -> 248        0.22143

 Excited State  61:      Singlet-A      4.6232 eV  268.18 nm  f=0.0004  <S**2>=0.000
     233 -> 244        0.10260
     233 -> 245       -0.10776
     233 -> 246        0.13017
     233 -> 247        0.55497
     233 -> 248        0.36997

 Excited State  62:      Singlet-A      4.6354 eV  267.47 nm  f=0.0005  <S**2>=0.000
     219 -> 236       -0.18103
     233 -> 245        0.21013
     233 -> 246       -0.29195
     233 -> 247       -0.26121
     233 -> 248        0.50642

 Excited State  63:      Singlet-A      4.6472 eV  266.79 nm  f=0.0027  <S**2>=0.000
     218 -> 235        0.27076
     219 -> 236        0.57738
     233 -> 248        0.21881

 Excited State  64:      Singlet-A      4.7611 eV  260.41 nm  f=0.0069  <S**2>=0.000
     232 -> 239        0.68200

 Excited State  65:      Singlet-A      4.8019 eV  258.20 nm  f=0.0035  <S**2>=0.000
     216 -> 235        0.59143
     226 -> 237       -0.16257
     228 -> 237       -0.25085

 Excited State  66:      Singlet-A      4.8185 eV  257.31 nm  f=0.0076  <S**2>=0.000
     228 -> 237        0.10132
     229 -> 237        0.11153
     229 -> 238        0.59286
     230 -> 238        0.27450
     232 -> 240       -0.12115

 Excited State  67:      Singlet-A      4.8253 eV  256.95 nm  f=0.0435  <S**2>=0.000
     216 -> 235       -0.19616
     217 -> 235       -0.18863
     228 -> 237       -0.12199
     229 -> 238        0.22973
     230 -> 238       -0.12688
     232 -> 240        0.48582
     232 -> 242       -0.13701
     232 -> 243        0.14472

 Excited State  68:      Singlet-A      4.8419 eV  256.07 nm  f=0.0006  <S**2>=0.000
     216 -> 235        0.29971
     224 -> 237        0.12422
     226 -> 237        0.27513
     228 -> 237        0.44017
     230 -> 238       -0.12561
     232 -> 240        0.21878

 Excited State  69:      Singlet-A      4.8840 eV  253.86 nm  f=0.0139  <S**2>=0.000
     217 -> 235        0.38626
     218 -> 235       -0.18696
     219 -> 236        0.11132
     231 -> 239       -0.28215
     231 -> 240        0.15161
     231 -> 241       -0.14632
     232 -> 240        0.21119
     232 -> 241        0.29434

 Excited State  70:      Singlet-A      4.9013 eV  252.96 nm  f=0.0072  <S**2>=0.000
     229 -> 238       -0.18723
     230 -> 238        0.47495
     232 -> 240        0.20704
     232 -> 241       -0.34468

 Excited State  71:      Singlet-A      4.9079 eV  252.62 nm  f=0.0033  <S**2>=0.000
     217 -> 235        0.10262
     230 -> 238        0.16187
     231 -> 239        0.58772
     231 -> 240        0.10448
     232 -> 241        0.19388
     232 -> 242       -0.10776
     232 -> 243        0.11333

 Excited State  72:      Singlet-A      4.9083 eV  252.60 nm  f=0.0008  <S**2>=0.000
     217 -> 235       -0.37003
     218 -> 235        0.14083
     229 -> 238       -0.12009
     230 -> 238        0.27192
     231 -> 239       -0.13956
     231 -> 240       -0.10095
     232 -> 241        0.41663

 Excited State  73:      Singlet-A      4.9217 eV  251.92 nm  f=0.0002  <S**2>=0.000
     217 -> 235       -0.16946
     231 -> 239       -0.12551
     231 -> 240        0.51680
     231 -> 241       -0.11411
     232 -> 240       -0.14760
     232 -> 241       -0.14344
     232 -> 242       -0.21833
     232 -> 243        0.21819

 Excited State  74:      Singlet-A      4.9622 eV  249.86 nm  f=0.0411  <S**2>=0.000
     218 -> 235       -0.10235
     218 -> 236        0.11835
     231 -> 240       -0.22427
     231 -> 241        0.37723
     232 -> 240       -0.17236
     232 -> 242       -0.31771
     232 -> 243        0.29023

 Excited State  75:      Singlet-A      4.9702 eV  249.45 nm  f=0.0057  <S**2>=0.000
     230 -> 240       -0.10156
     231 -> 240        0.31423
     231 -> 241        0.48804
     232 -> 240        0.10189
     232 -> 242        0.18806
     232 -> 243       -0.17984

 The electronic state is 1-A.
 Alpha  occ. eigenvalues --  -88.92579 -24.76718 -24.76568 -24.76537 -24.76288
 Alpha  occ. eigenvalues --  -24.76283 -24.76131 -24.76128 -24.76106 -24.76104
 Alpha  occ. eigenvalues --  -24.75885 -24.75880 -24.75720 -24.75705 -24.75691
 Alpha  occ. eigenvalues --  -24.75686 -19.20969 -14.38615 -14.38247 -14.38033
 Alpha  occ. eigenvalues --  -14.37968 -10.33298 -10.33142 -10.33109 -10.32724
 Alpha  occ. eigenvalues --  -10.32714 -10.32665 -10.32658 -10.32571 -10.32561
 Alpha  occ. eigenvalues --  -10.32517 -10.32516 -10.32506 -10.32500 -10.32467
 Alpha  occ. eigenvalues --  -10.32465 -10.29497 -10.25785 -10.25631 -10.25591
 Alpha  occ. eigenvalues --  -10.25569 -10.25494 -10.25401 -10.25370 -10.25282
 Alpha  occ. eigenvalues --  -10.25251 -10.25141 -10.24933 -10.24375 -10.24261
 Alpha  occ. eigenvalues --  -10.24227 -10.24123 -10.23819 -10.23417 -10.22471
 Alpha  occ. eigenvalues --  -10.22110 -10.21380 -10.21377 -10.21293 -10.21259
 Alpha  occ. eigenvalues --  -10.21151 -10.20698 -10.20613  -7.99814  -5.96165
 Alpha  occ. eigenvalues --   -5.95787  -5.95474  -3.39979  -2.13117  -2.13071
 Alpha  occ. eigenvalues --   -2.08848  -1.29132  -1.28978  -1.28945  -1.28325
 Alpha  occ. eigenvalues --   -1.28165  -1.28134  -1.27790  -1.27631  -1.27596
 Alpha  occ. eigenvalues --   -1.26938  -1.26777  -1.26745  -1.26720  -1.26561
 Alpha  occ. eigenvalues --   -1.26530  -1.10038  -0.99989  -0.99167  -0.98919
 Alpha  occ. eigenvalues --   -0.98225  -0.93039  -0.92886  -0.92784  -0.91388
 Alpha  occ. eigenvalues --   -0.86697  -0.85470  -0.84613  -0.82219  -0.81277
 Alpha  occ. eigenvalues --   -0.80540  -0.80385  -0.80351  -0.80091  -0.79980
 Alpha  occ. eigenvalues --   -0.79566  -0.79022  -0.78682  -0.76752  -0.76283
 Alpha  occ. eigenvalues --   -0.75908  -0.74371  -0.71074  -0.70414  -0.69150
 Alpha  occ. eigenvalues --   -0.68832  -0.68680  -0.68664  -0.67908  -0.67611
 Alpha  occ. eigenvalues --   -0.63663  -0.63298  -0.62493  -0.62190  -0.61989
 Alpha  occ. eigenvalues --   -0.61637  -0.61564  -0.61478  -0.61181  -0.61128
 Alpha  occ. eigenvalues --   -0.60714  -0.60127  -0.59747  -0.59243  -0.58668
 Alpha  occ. eigenvalues --   -0.58371  -0.57749  -0.57205  -0.57048  -0.57015
 Alpha  occ. eigenvalues --   -0.56967  -0.56685  -0.56520  -0.56435  -0.55819
 Alpha  occ. eigenvalues --   -0.55409  -0.55070  -0.54919  -0.54843  -0.54723
 Alpha  occ. eigenvalues --   -0.54461  -0.54439  -0.54310  -0.54062  -0.53661
 Alpha  occ. eigenvalues --   -0.52074  -0.51930  -0.51881  -0.51734  -0.50932
 Alpha  occ. eigenvalues --   -0.50872  -0.50684  -0.50095  -0.49196  -0.49032
 Alpha  occ. eigenvalues --   -0.49005  -0.48941  -0.48701  -0.48653  -0.48615
 Alpha  occ. eigenvalues --   -0.47434  -0.46981  -0.46887  -0.46647  -0.46526
 Alpha  occ. eigenvalues --   -0.46479  -0.46439  -0.46324  -0.46299  -0.46053
 Alpha  occ. eigenvalues --   -0.45367  -0.44982  -0.44729  -0.44395  -0.44253
 Alpha  occ. eigenvalues --   -0.43961  -0.43914  -0.43805  -0.43768  -0.43588
 Alpha  occ. eigenvalues --   -0.43003  -0.42938  -0.42797  -0.42293  -0.41917
 Alpha  occ. eigenvalues --   -0.41641  -0.41499  -0.41192  -0.41173  -0.41057
 Alpha  occ. eigenvalues --   -0.40969  -0.40914  -0.40808  -0.40571  -0.40274
 Alpha  occ. eigenvalues --   -0.39442  -0.38952  -0.38044  -0.37903  -0.37477
 Alpha  occ. eigenvalues --   -0.37193  -0.34993  -0.34736  -0.34250  -0.32736
 Alpha  occ. eigenvalues --   -0.32671  -0.32511  -0.31426  -0.29748  -0.29531
 Alpha  occ. eigenvalues --   -0.29152  -0.28895  -0.28668  -0.28421  -0.28286
 Alpha  occ. eigenvalues --   -0.28166  -0.28112  -0.27993  -0.26905  -0.26559
 Alpha  occ. eigenvalues --   -0.25237  -0.24763  -0.22745  -0.21775
 Alpha virt. eigenvalues --   -0.11785  -0.10963  -0.07222  -0.06835  -0.05405
 Alpha virt. eigenvalues --   -0.05273  -0.05176  -0.04595  -0.04494  -0.04394
 Alpha virt. eigenvalues --   -0.04262  -0.04236  -0.04072  -0.04052  -0.01348

 Mulliken charges:
               1
     1  C    0.011323
     2  C    0.465850
     3  C   -0.282328
     4  C    0.343783
     5  C    0.117159
     6  C   -0.271456
     7  C    0.078360
     8  C    0.402925
     9  C   -0.314257
    10  C    0.341507
    11  C   -0.368033
    12  C    0.316010
    13  H    0.142015
    14  H    0.135187
    15  H    0.134777
    16  N    0.238988
    17  N    0.301187
    18  N    0.240721
    19  N    0.236320
    20  C   -0.167701
    21  H    0.134939
    22  C   -0.223411
    23  H    0.132091
    24  C    0.235961
    25  C   -0.263153
    26  H    0.135092
    27  C    0.273564
    28  C    0.148030
    29  C    0.059875
    30  C    0.051154
    31  C   -0.555979
    32  C    0.183777
    33  C    0.160264
    34  C    0.233181
    35  C    0.254560
    36  C    0.570464
    37  C   -0.449114
    38  C    0.073098
    39  C    0.061303
    40  C    0.345059
    41  C    0.353264
    42  C    0.480976
    43  C   -0.658876
    44  C    0.200849
    45  C    0.203800
    46  C    0.214143
    47  C    0.247587
    48  C    0.569587
    49  C   -0.741886
    50  C   -0.146834
    51  H    0.154005
    52  F   -0.286425
    53  F   -0.338195
    54  F   -0.338684
    55  F   -0.339127
    56  F   -0.285139
    57  F   -0.281620
    58  F   -0.343055
    59  F   -0.338402
    60  F   -0.342887
    61  F   -0.281852
    62  F   -0.285288
    63  F   -0.336821
    64  F   -0.337990
    65  F   -0.336527
    66  F   -0.280585
    67  H    0.146099
    68  C    0.107669
    69  C   -0.141531
    70  H    0.169631
    71  S    0.213724
    72  Pd  -0.302499
    73  O   -0.513126
    74  H    0.377419
    75  H    0.155504
 Sum of Mulliken charges =   0.00000

 Dipole moment (field-independent basis, Debye):
    X=             -2.8907    Y=             -3.7429    Z=             -0.6087  Tot=              4.7683
 Quadrupole moment (field-independent basis, Debye-Ang):
   XX=           -377.0733   YY=           -354.6507   ZZ=           -397.1834
   XY=             24.8211   XZ=              3.1384   YZ=              3.6916

 Normal termination of Gaussian 16 at Sat Sep  3 22:01:48 2022.
