 Gaussian 16, Revision C.01,
 Gaussian 16:  ES64L-G16RevC.01  3-Jul-2019

 ----------------------------------------------------------------
 # td=(nstates=75) b3lyp/genecp geom=connectivity scf=maxcyc=1000
 ----------------------------------------------------------------

 -----
 title
 -----
 Symbolic Z-matrix:
 Charge =  0 Multiplicity = 1

                         Standard orientation:
 ---------------------------------------------------------------------
 Center     Atomic      Atomic             Coordinates (Angstroms)
 Number     Number       Type             X           Y           Z
 ---------------------------------------------------------------------
      1          6           0       -1.339465   -2.756887   -0.190146
      2          6           0        1.346644    2.791997    0.018744
      3          6           0        3.568931    2.434468    0.183398
      4          6           0        2.856216    1.179005    0.085958
      5          6           0        2.771149   -1.301652   -0.038559
      6          6           0        2.444483   -3.530538   -0.271681
      7          6           0        1.175900   -2.823586   -0.224124
      8          6           0       -1.127398    2.875887   -0.059328
      9          6           0       -2.384974    3.593083   -0.071669
     10          6           0       -2.818533   -1.119641   -0.057327
     11          6           0       -3.549368   -2.344946   -0.078715
     12          6           0       -2.740993    1.366092   -0.033909
     13          1           0       -4.625165   -2.431759   -0.071379
     14          1           0       -2.487154    4.667581   -0.096460
     15          1           0        4.639314    2.535782    0.282328
     16          7           0        1.414457   -1.475024   -0.101631
     17          7           0       -1.478335   -1.387578   -0.125027
     18          7           0        1.504464    1.432137   -0.005560
     19          7           0       -1.373727    1.528504   -0.046362
     20          6           0        2.643986    3.424024    0.133890
     21          1           0        2.812844    4.489094    0.187930
     22          6           0        3.416326   -2.571938   -0.133517
     23          1           0        4.482808   -2.739397   -0.145767
     24          6           0       -2.657362   -3.385667   -0.172253
     25          6           0       -3.374398    2.667018   -0.043668
     26          1           0       -4.440208    2.839328   -0.031748
     27          6           0       -0.101969   -3.423732   -0.230869
     28          6           0       -3.420928    0.154398   -0.015741
     29          6           0        3.457078   -0.073787    0.074718
     30          6           0        0.131845    3.486269   -0.031331
     31          6           0        4.947179   -0.133434    0.176848
     32          6           0        5.771266    0.236130   -0.891514
     33          6           0        5.578583   -0.569060    1.346966
     34          6           0        7.160787    0.182739   -0.803988
     35          6           0        6.965650   -0.635746    1.456266
     36          6           0        7.758599   -0.256452    0.375212
     37          6           0        0.185548    4.979593   -0.036035
     38          6           0        0.605911    5.689205   -1.166382
     39          6           0       -0.176592    5.730945    1.087371
     40          6           0        0.666715    7.080928   -1.184539
     41          6           0       -0.130248    7.123293    1.091163
     42          6           0        0.295117    7.799435   -0.050280
     43          6           0       -4.915062    0.198926    0.040226
     44          6           0       -5.680740    0.503934   -1.089314
     45          6           0       -5.605541   -0.069841    1.226370
     46          6           0       -7.072690    0.546334   -1.046499
     47          6           0       -6.996695   -0.038186    1.292543
     48          6           0       -7.731364    0.272395    0.150134
     49          6           0       -3.085652   -4.785658   -0.224090
     50          6           0       -3.504038   -7.002763   -0.859312
     51          1           0       -1.928899   -5.743225   -1.775655
     52          6           0        2.718517   -4.964570   -0.438152
     53          6           0        2.920974   -7.127615   -1.329651
     54          1           0        1.801908   -5.491109   -2.330264
     55          9           0        4.844581   -0.938148    2.404606
     56          9           0        7.539029   -1.054555    2.589345
     57          9           0        9.088732   -0.313722    0.469293
     58          9           0        7.921418    0.543333   -1.843009
     59          9           0        5.228947    0.658002   -2.041089
     60          9           0        0.967364    5.029018   -2.274115
     61          9           0        1.072500    7.729554   -2.281347
     62          9           0        0.346576    9.133245   -0.056985
     63          9           0       -0.483555    7.812431    2.181520
     64          9           0       -0.585764    5.112000    2.202664
     65          9           0       -5.077042    0.770186   -2.255127
     66          9           0       -7.777890    0.843384   -2.143330
     67          9           0       -9.064669    0.308750    0.202453
     68          9           0       -7.629014   -0.297688    2.441709
     69          9           0       -4.926835   -0.369883    2.340811
     70          1           0        2.763867   -7.924386   -2.047263
     71          1           0       -3.359531   -7.916512   -1.424856
     72          6           0        2.387086   -5.813835   -1.476074
     73          6           0       -2.726337   -5.825761   -1.049865
     74          6           0       -4.456100   -6.862923    0.114565
     75          1           0       -5.164904   -7.597138    0.471749
     76         16           0       -4.415846   -5.281414    0.813827
     77         16           0        3.716114   -5.808508    0.732139
     78          6           0        3.664451   -7.272108   -0.190011
     79          1           0        4.175789   -8.155438    0.167291
     80         46           0        0.015889    0.024152   -0.070758
     81          8           0       -0.198558   -4.769180   -0.264358
     82          1           0        0.680194   -5.185683   -0.233121
 ---------------------------------------------------------------------

 SCF Done:  E(RB3LYP) =  -4475.52940306     A.U. after   27 cycles

 Excitation energies and oscillator strengths:

 Excited State   1:      Singlet-A      2.2919 eV  540.96 nm  f=0.0376  <S**2>=0.000
     253 -> 257        0.15606
     254 -> 257       -0.34917
     255 -> 256        0.58419
 This state for optimization and/or second-order correction.
 Total Energy, E(TD-HF/TD-DFT) =  -4475.44517654
 Copying the excited state density for this state as the 1-particle RhoCI density.

 Excited State   2:      Singlet-A      2.3169 eV  535.14 nm  f=0.0037  <S**2>=0.000
     254 -> 256        0.54038
     255 -> 257        0.44064

 Excited State   3:      Singlet-A      2.6330 eV  470.88 nm  f=0.0596  <S**2>=0.000
     253 -> 256        0.56125
     254 -> 256        0.27411
     255 -> 257       -0.28279

 Excited State   4:      Singlet-A      2.7531 eV  450.35 nm  f=0.2626  <S**2>=0.000
     253 -> 256       -0.13275
     253 -> 257        0.38480
     254 -> 257        0.52707
     255 -> 256        0.21047

 Excited State   5:      Singlet-A      2.9452 eV  420.97 nm  f=0.0037  <S**2>=0.000
     255 -> 258        0.69435

 Excited State   6:      Singlet-A      2.9838 eV  415.52 nm  f=0.1152  <S**2>=0.000
     252 -> 256        0.62839
     252 -> 257       -0.15034
     253 -> 257        0.12528
     254 -> 256        0.11565
     255 -> 257       -0.12586

 Excited State   7:      Singlet-A      3.1448 eV  394.25 nm  f=0.4255  <S**2>=0.000
     251 -> 256       -0.21022
     251 -> 257       -0.12042
     252 -> 257       -0.12624
     253 -> 256        0.13808
     253 -> 257        0.40038
     254 -> 256       -0.19312
     254 -> 257       -0.16889
     254 -> 258        0.23978
     255 -> 256       -0.19226
     255 -> 257        0.23160

 Excited State   8:      Singlet-A      3.1717 eV  390.91 nm  f=0.3337  <S**2>=0.000
     251 -> 257        0.10534
     251 -> 258       -0.11139
     252 -> 256        0.14518
     253 -> 256        0.16902
     253 -> 257       -0.24858
     254 -> 257        0.16552
     254 -> 258        0.49798
     255 -> 256        0.15601
     255 -> 257        0.14865

 Excited State   9:      Singlet-A      3.1853 eV  389.23 nm  f=0.4926  <S**2>=0.000
     251 -> 256        0.12636
     251 -> 257       -0.10842
     251 -> 258       -0.11093
     252 -> 256       -0.11528
     252 -> 257        0.24908
     253 -> 256       -0.24066
     253 -> 257        0.13548
     254 -> 256        0.21135
     254 -> 257       -0.10365
     254 -> 258        0.35384
     255 -> 256       -0.10210
     255 -> 257       -0.29264

 Excited State  10:      Singlet-A      3.2504 eV  381.44 nm  f=0.2641  <S**2>=0.000
     247 -> 258        0.16949
     251 -> 256        0.20828
     251 -> 257       -0.16044
     252 -> 256        0.16132
     252 -> 257        0.48774
     253 -> 256        0.19193
     254 -> 256       -0.12296
     254 -> 258       -0.13320
     255 -> 257        0.16631

 Excited State  11:      Singlet-A      3.3318 eV  372.13 nm  f=0.0303  <S**2>=0.000
     247 -> 256        0.14297
     251 -> 256        0.54724
     251 -> 257        0.24966
     252 -> 257       -0.20019
     253 -> 257        0.18500

 Excited State  12:      Singlet-A      3.3648 eV  368.47 nm  f=0.0009  <S**2>=0.000
     247 -> 256        0.53903
     249 -> 256        0.20401
     249 -> 258       -0.10450
     251 -> 256       -0.13543
     252 -> 258       -0.13709
     253 -> 258        0.27210

 Excited State  13:      Singlet-A      3.3969 eV  364.99 nm  f=0.0052  <S**2>=0.000
     236 -> 258       -0.10922
     247 -> 256       -0.31704
     249 -> 256       -0.11997
     249 -> 258       -0.14454
     251 -> 258       -0.18766
     252 -> 258       -0.17674
     253 -> 258        0.50750

 Excited State  14:      Singlet-A      3.4808 eV  356.19 nm  f=0.0163  <S**2>=0.000
     247 -> 258       -0.33833
     249 -> 256       -0.14706
     249 -> 258       -0.15538
     251 -> 256       -0.10632
     251 -> 257        0.40274
     251 -> 258        0.11108
     252 -> 257        0.27094
     252 -> 258       -0.18393

 Excited State  15:      Singlet-A      3.4837 eV  355.90 nm  f=0.0027  <S**2>=0.000
     235 -> 258       -0.16335
     247 -> 258       -0.14095
     251 -> 257        0.13965
     251 -> 258       -0.30351
     252 -> 257        0.12361
     252 -> 258        0.50219
     253 -> 258        0.14064

 Excited State  16:      Singlet-A      3.5599 eV  348.28 nm  f=0.0529  <S**2>=0.000
     247 -> 256       -0.16685
     247 -> 258        0.22315
     249 -> 256        0.35192
     250 -> 256       -0.33953
     251 -> 256       -0.15769
     251 -> 257        0.29781
     252 -> 256       -0.11692

 Excited State  17:      Singlet-A      3.5896 eV  345.40 nm  f=0.0108  <S**2>=0.000
     247 -> 257       -0.27464
     247 -> 258        0.13597
     249 -> 256        0.16624
     249 -> 257       -0.11729
     250 -> 256        0.56329
     251 -> 257        0.14555

 Excited State  18:      Singlet-A      3.5975 eV  344.64 nm  f=0.0044  <S**2>=0.000
     247 -> 257        0.56328
     247 -> 258        0.11350
     249 -> 256        0.16100
     249 -> 257        0.21589
     250 -> 256        0.23100

 Excited State  19:      Singlet-A      3.6373 eV  340.87 nm  f=0.0519  <S**2>=0.000
     247 -> 256       -0.17161
     247 -> 258       -0.38783
     249 -> 256        0.38691
     249 -> 258       -0.11896
     251 -> 257       -0.21282
     255 -> 259       -0.25994

 Excited State  20:      Singlet-A      3.6404 eV  340.58 nm  f=0.0626  <S**2>=0.000
     247 -> 258       -0.11232
     249 -> 256        0.19547
     251 -> 257       -0.10924
     255 -> 259        0.61744

 Excited State  21:      Singlet-A      3.7353 eV  331.93 nm  f=0.0014  <S**2>=0.000
     247 -> 257        0.10032
     248 -> 256        0.31009
     250 -> 257        0.61744

 Excited State  22:      Singlet-A      3.7367 eV  331.80 nm  f=0.0047  <S**2>=0.000
     248 -> 256        0.61802
     250 -> 257       -0.31375

 Excited State  23:      Singlet-A      3.7841 eV  327.64 nm  f=0.0375  <S**2>=0.000
     245 -> 256        0.13930
     249 -> 257        0.15186
     254 -> 259        0.64147

 Excited State  24:      Singlet-A      3.8127 eV  325.18 nm  f=0.0032  <S**2>=0.000
     245 -> 256        0.60756
     246 -> 256       -0.24764
     249 -> 257        0.15387
     254 -> 259       -0.15477

 Excited State  25:      Singlet-A      3.8187 eV  324.67 nm  f=0.0088  <S**2>=0.000
     245 -> 256        0.30655
     246 -> 256        0.56966
     249 -> 257       -0.24698

 Excited State  26:      Singlet-A      3.8190 eV  324.65 nm  f=0.0485  <S**2>=0.000
     246 -> 256        0.32662
     247 -> 257       -0.20911
     249 -> 257        0.54111
     254 -> 259       -0.12567

 Excited State  27:      Singlet-A      3.9464 eV  314.17 nm  f=0.0036  <S**2>=0.000
     243 -> 256       -0.30430
     244 -> 256        0.61456

 Excited State  28:      Singlet-A      3.9878 eV  310.91 nm  f=0.0131  <S**2>=0.000
     242 -> 256        0.17011
     243 -> 256        0.22873
     244 -> 256        0.12219
     246 -> 257        0.49182
     248 -> 257        0.10257
     251 -> 258       -0.24538
     253 -> 258       -0.18287

 Excited State  29:      Singlet-A      3.9923 eV  310.56 nm  f=0.0097  <S**2>=0.000
     246 -> 257        0.41032
     251 -> 258        0.39339
     252 -> 258        0.14686
     253 -> 258        0.28362
     254 -> 258        0.13427

 Excited State  30:      Singlet-A      4.0037 eV  309.68 nm  f=0.0296  <S**2>=0.000
     241 -> 256        0.14975
     242 -> 256        0.44337
     243 -> 256        0.26220
     244 -> 256        0.16411
     246 -> 257       -0.24039
     248 -> 257        0.14056
     251 -> 258        0.15747
     253 -> 258        0.10691
     255 -> 260       -0.14210

 Excited State  31:      Singlet-A      4.0139 eV  308.88 nm  f=0.0035  <S**2>=0.000
     242 -> 256       -0.17549
     248 -> 257        0.66072

 Excited State  32:      Singlet-A      4.0271 eV  307.87 nm  f=0.0006  <S**2>=0.000
     241 -> 256       -0.13825
     242 -> 256        0.43283
     243 -> 256       -0.42731
     244 -> 256       -0.17696
     255 -> 261        0.17609

 Excited State  33:      Singlet-A      4.0457 eV  306.46 nm  f=0.0258  <S**2>=0.000
     241 -> 256       -0.11468
     243 -> 256        0.15878
     244 -> 256        0.11186
     253 -> 259        0.12991
     255 -> 260        0.54891
     255 -> 261        0.29083

 Excited State  34:      Singlet-A      4.0593 eV  305.43 nm  f=0.0095  <S**2>=0.000
     240 -> 256        0.14430
     241 -> 256       -0.30286
     243 -> 256        0.13368
     255 -> 260       -0.33064
     255 -> 261        0.45989

 Excited State  35:      Singlet-A      4.0699 eV  304.64 nm  f=0.0164  <S**2>=0.000
     240 -> 256       -0.19999
     241 -> 256        0.48527
     242 -> 256       -0.13361
     243 -> 256       -0.13268
     255 -> 261        0.38017

 Excited State  36:      Singlet-A      4.0963 eV  302.67 nm  f=0.0029  <S**2>=0.000
     245 -> 257        0.69120

 Excited State  37:      Singlet-A      4.1354 eV  299.81 nm  f=0.0549  <S**2>=0.000
     243 -> 256       -0.12204
     244 -> 257        0.13370
     253 -> 259        0.59134
     255 -> 260       -0.12647
     255 -> 262        0.10116
     255 -> 263        0.21988

 Excited State  38:      Singlet-A      4.1434 eV  299.23 nm  f=0.0088  <S**2>=0.000
     244 -> 257       -0.11570
     253 -> 259       -0.13643
     255 -> 262        0.65353
     255 -> 263        0.14564

 Excited State  39:      Singlet-A      4.1550 eV  298.40 nm  f=0.0015  <S**2>=0.000
     241 -> 257        0.12171
     242 -> 257        0.18090
     243 -> 257        0.12812
     244 -> 257       -0.19696
     255 -> 262       -0.17136
     255 -> 263        0.55855

 Excited State  40:      Singlet-A      4.1742 eV  297.02 nm  f=0.0289  <S**2>=0.000
     238 -> 256       -0.18206
     240 -> 256        0.15076
     240 -> 257        0.11771
     241 -> 257       -0.24750
     242 -> 257       -0.25462
     243 -> 257       -0.25980
     244 -> 257        0.27183
     253 -> 259       -0.15284
     255 -> 263        0.30210

 Excited State  41:      Singlet-A      4.2136 eV  294.25 nm  f=0.0031  <S**2>=0.000
     241 -> 257        0.11506
     243 -> 257        0.39371
     244 -> 257        0.50647
     253 -> 259       -0.12144

 Excited State  42:      Singlet-A      4.2251 eV  293.44 nm  f=0.0156  <S**2>=0.000
     240 -> 256        0.57586
     241 -> 256        0.23849
     243 -> 257        0.22989
     254 -> 260       -0.16067

 Excited State  43:      Singlet-A      4.2313 eV  293.02 nm  f=0.0332  <S**2>=0.000
     240 -> 256        0.13633
     241 -> 256        0.14348
     254 -> 260        0.65183

 Excited State  44:      Singlet-A      4.2768 eV  289.90 nm  f=0.0011  <S**2>=0.000
     238 -> 256       -0.15735
     239 -> 256       -0.20661
     240 -> 256       -0.11190
     240 -> 257        0.12599
     241 -> 257       -0.20561
     242 -> 257       -0.33860
     243 -> 257        0.40262
     244 -> 257       -0.25167

 Excited State  45:      Singlet-A      4.2874 eV  289.18 nm  f=0.0042  <S**2>=0.000
     239 -> 256        0.10382
     253 -> 261       -0.16688
     254 -> 261        0.65860

 Excited State  46:      Singlet-A      4.3173 eV  287.18 nm  f=0.0081  <S**2>=0.000
     238 -> 256        0.12935
     239 -> 256        0.22435
     242 -> 257       -0.12115
     254 -> 262        0.62351

 Excited State  47:      Singlet-A      4.3229 eV  286.81 nm  f=0.0055  <S**2>=0.000
     238 -> 256       -0.35914
     239 -> 256       -0.32473
     242 -> 257        0.36442
     254 -> 261        0.14860
     254 -> 262        0.26110

 Excited State  48:      Singlet-A      4.3402 eV  285.67 nm  f=0.0244  <S**2>=0.000
     238 -> 256       -0.28621
     241 -> 257        0.55513
     242 -> 257       -0.27028

 Excited State  49:      Singlet-A      4.3754 eV  283.37 nm  f=0.0110  <S**2>=0.000
     238 -> 256        0.20034
     239 -> 256       -0.20559
     253 -> 263       -0.13127
     254 -> 263        0.60170

 Excited State  50:      Singlet-A      4.4080 eV  281.27 nm  f=0.0171  <S**2>=0.000
     238 -> 256        0.10760
     240 -> 257        0.65351
     241 -> 257        0.14178
     242 -> 257        0.12275

 Excited State  51:      Singlet-A      4.4300 eV  279.87 nm  f=0.0023  <S**2>=0.000
     255 -> 264        0.68044

 Excited State  52:      Singlet-A      4.4393 eV  279.29 nm  f=0.0564  <S**2>=0.000
     234 -> 258        0.13108
     237 -> 257       -0.10385
     238 -> 256       -0.32655
     239 -> 256        0.39495
     249 -> 258       -0.14557
     254 -> 262       -0.11769
     254 -> 263        0.26620
     255 -> 264        0.14323

 Excited State  53:      Singlet-A      4.4577 eV  278.13 nm  f=0.0236  <S**2>=0.000
     234 -> 258        0.49907
     239 -> 256       -0.14145
     247 -> 258        0.11238
     249 -> 258       -0.34962
     252 -> 258        0.16633

 Excited State  54:      Singlet-A      4.4755 eV  277.03 nm  f=0.0550  <S**2>=0.000
     252 -> 259       -0.47371
     255 -> 265        0.48242

 Excited State  55:      Singlet-A      4.4838 eV  276.52 nm  f=0.0602  <S**2>=0.000
     252 -> 259        0.45203
     255 -> 265        0.50364

 Excited State  56:      Singlet-A      4.5142 eV  274.66 nm  f=0.0032  <S**2>=0.000
     253 -> 260        0.10440
     255 -> 266        0.67491

 Excited State  57:      Singlet-A      4.5333 eV  273.50 nm  f=0.0113  <S**2>=0.000
     234 -> 258        0.41576
     236 -> 258        0.11889
     247 -> 258       -0.12872
     249 -> 258        0.37966
     250 -> 258       -0.10715
     252 -> 258       -0.17499
     252 -> 259       -0.10435
     253 -> 260       -0.17088

 Excited State  58:      Singlet-A      4.5450 eV  272.80 nm  f=0.0460  <S**2>=0.000
     238 -> 257        0.56816
     239 -> 257        0.34289
     255 -> 266        0.10464

 Excited State  59:      Singlet-A      4.5795 eV  270.74 nm  f=0.0077  <S**2>=0.000
     239 -> 257       -0.14330
     249 -> 258        0.13504
     253 -> 260        0.59643
     255 -> 266       -0.10005
     255 -> 267       -0.15491

 Excited State  60:      Singlet-A      4.6236 eV  268.16 nm  f=0.0275  <S**2>=0.000
     237 -> 256        0.18227
     238 -> 257       -0.36239
     239 -> 257        0.47008
     253 -> 260        0.20658
     255 -> 267        0.17260

 Excited State  61:      Singlet-A      4.6566 eV  266.25 nm  f=0.0002  <S**2>=0.000
     253 -> 264       -0.14858
     254 -> 264        0.66437
     254 -> 266        0.14768

 Excited State  62:      Singlet-A      4.6708 eV  265.44 nm  f=0.0015  <S**2>=0.000
     253 -> 261       -0.16154
     253 -> 262        0.65275
     253 -> 263        0.13780

 Excited State  63:      Singlet-A      4.6847 eV  264.66 nm  f=0.0008  <S**2>=0.000
     254 -> 264       -0.14232
     254 -> 266        0.67792

 Excited State  64:      Singlet-A      4.6964 eV  264.00 nm  f=0.0025  <S**2>=0.000
     250 -> 258        0.10162
     253 -> 261        0.62115
     253 -> 262        0.17629
     254 -> 261        0.16480
     255 -> 267        0.12220

 Excited State  65:      Singlet-A      4.7011 eV  263.73 nm  f=0.0031  <S**2>=0.000
     249 -> 258        0.11701
     250 -> 258        0.68290

 Excited State  66:      Singlet-A      4.7173 eV  262.83 nm  f=0.0068  <S**2>=0.000
     251 -> 259       -0.11372
     253 -> 265       -0.13815
     254 -> 265        0.64884
     255 -> 267       -0.15672

 Excited State  67:      Singlet-A      4.7273 eV  262.27 nm  f=0.0251  <S**2>=0.000
     251 -> 259        0.65354
     255 -> 267       -0.10644

 Excited State  68:      Singlet-A      4.7375 eV  261.71 nm  f=0.0141  <S**2>=0.000
     237 -> 256       -0.22678
     239 -> 257       -0.14535
     253 -> 261       -0.12084
     254 -> 265        0.18543
     255 -> 267        0.58063

 Excited State  69:      Singlet-A      4.8094 eV  257.80 nm  f=0.0223  <S**2>=0.000
     253 -> 262       -0.12078
     253 -> 263        0.65112
     254 -> 263        0.14064

 Excited State  70:      Singlet-A      4.8632 eV  254.95 nm  f=0.0262  <S**2>=0.000
     237 -> 257       -0.20394
     242 -> 258        0.12022
     243 -> 258        0.11325
     252 -> 260        0.42032
     254 -> 267       -0.41059

 Excited State  71:      Singlet-A      4.8869 eV  253.71 nm  f=0.0247  <S**2>=0.000
     234 -> 256       -0.12810
     240 -> 258       -0.15384
     241 -> 258        0.23100
     242 -> 258        0.31664
     243 -> 258        0.28563
     246 -> 258        0.25271
     248 -> 258        0.16399
     252 -> 258       -0.12215
     252 -> 260       -0.13900
     254 -> 267        0.17974

 Excited State  72:      Singlet-A      4.8921 eV  253.44 nm  f=0.0003  <S**2>=0.000
     234 -> 256        0.18499
     239 -> 258        0.24907
     243 -> 258       -0.17237
     244 -> 258       -0.27553
     248 -> 258        0.48635

 Excited State  73:      Singlet-A      4.9153 eV  252.24 nm  f=0.0904  <S**2>=0.000
     237 -> 256       -0.12388
     247 -> 259        0.20831
     249 -> 259        0.13178
     250 -> 259       -0.27270
     252 -> 260        0.41050
     254 -> 267        0.34563

 Excited State  74:      Singlet-A      4.9202 eV  251.99 nm  f=0.0432  <S**2>=0.000
     247 -> 259       -0.36265
     249 -> 259       -0.22747
     250 -> 259        0.38810
     252 -> 260        0.23178
     254 -> 267        0.25673

 Excited State  75:      Singlet-A      4.9223 eV  251.88 nm  f=0.0064  <S**2>=0.000
     234 -> 256       -0.34049
     239 -> 258       -0.13365
     241 -> 258       -0.12110
     244 -> 258        0.21629
     246 -> 258       -0.22174
     248 -> 258        0.42845
     249 -> 258       -0.12347

 The electronic state is 1-A.
 Alpha  occ. eigenvalues --  -88.91219 -88.88884 -24.73996 -24.73809 -24.73687
 Alpha  occ. eigenvalues --  -24.73546 -24.73545 -24.73365 -24.73350 -24.73337
 Alpha  occ. eigenvalues --  -24.73333 -24.73262 -24.73218 -24.73147 -24.73111
 Alpha  occ. eigenvalues --  -24.73061 -24.72992 -19.19151 -14.37487 -14.37155
 Alpha  occ. eigenvalues --  -14.36750 -14.36690 -10.31258 -10.31058 -10.30943
 Alpha  occ. eigenvalues --  -10.30824 -10.30815 -10.30638 -10.30635 -10.30600
 Alpha  occ. eigenvalues --  -10.30591 -10.30523 -10.30494 -10.30441 -10.30432
 Alpha  occ. eigenvalues --  -10.30335 -10.30314 -10.28318 -10.24527 -10.24225
 Alpha  occ. eigenvalues --  -10.24071 -10.24057 -10.23985 -10.23925 -10.23891
 Alpha  occ. eigenvalues --  -10.23814 -10.23780 -10.23756 -10.23664 -10.23575
 Alpha  occ. eigenvalues --  -10.23168 -10.22886 -10.22705 -10.22335 -10.22127
 Alpha  occ. eigenvalues --  -10.21975 -10.21564 -10.21308 -10.21139 -10.20992
 Alpha  occ. eigenvalues --  -10.20128 -10.20092 -10.20023 -10.19961 -10.19898
 Alpha  occ. eigenvalues --  -10.19084 -10.18949 -10.18705  -7.98741  -7.96441
 Alpha  occ. eigenvalues --   -5.95072  -5.94696  -5.94380  -5.92771  -5.92402
 Alpha  occ. eigenvalues --   -5.92071  -3.39156  -2.12249  -2.12215  -2.07984
 Alpha  occ. eigenvalues --   -1.26716  -1.26523  -1.26406  -1.25935  -1.25736
 Alpha  occ. eigenvalues --   -1.25625  -1.25422  -1.25219  -1.25110  -1.24556
 Alpha  occ. eigenvalues --   -1.24353  -1.24289  -1.24251  -1.24091  -1.23981
 Alpha  occ. eigenvalues --   -1.08681  -0.98683  -0.97870  -0.97594  -0.96910
 Alpha  occ. eigenvalues --   -0.91246  -0.91019  -0.90903  -0.90388  -0.88003
 Alpha  occ. eigenvalues --   -0.85169  -0.83872  -0.82975  -0.81014  -0.79884
 Alpha  occ. eigenvalues --   -0.79740  -0.78667  -0.78609  -0.78543  -0.78388
 Alpha  occ. eigenvalues --   -0.78311  -0.77556  -0.77158  -0.75779  -0.74902
 Alpha  occ. eigenvalues --   -0.74566  -0.73477  -0.73188  -0.71730  -0.69455
 Alpha  occ. eigenvalues --   -0.68652  -0.67311  -0.66804  -0.66629  -0.66515
 Alpha  occ. eigenvalues --   -0.66165  -0.65837  -0.62412  -0.62132  -0.60695
 Alpha  occ. eigenvalues --   -0.60508  -0.59948  -0.59803  -0.59585  -0.59443
 Alpha  occ. eigenvalues --   -0.59362  -0.59262  -0.59017  -0.58383  -0.58293
 Alpha  occ. eigenvalues --   -0.57973  -0.57642  -0.57085  -0.56894  -0.55964
 Alpha  occ. eigenvalues --   -0.55434  -0.55212  -0.55090  -0.54976  -0.54775
 Alpha  occ. eigenvalues --   -0.54674  -0.54405  -0.54183  -0.54140  -0.53914
 Alpha  occ. eigenvalues --   -0.53689  -0.52927  -0.52696  -0.52413  -0.52351
 Alpha  occ. eigenvalues --   -0.52190  -0.52094  -0.51958  -0.51847  -0.50143
 Alpha  occ. eigenvalues --   -0.49830  -0.49661  -0.49515  -0.49302  -0.48760
 Alpha  occ. eigenvalues --   -0.48474  -0.48439  -0.47739  -0.47195  -0.46905
 Alpha  occ. eigenvalues --   -0.46697  -0.46593  -0.46481  -0.46321  -0.46268
 Alpha  occ. eigenvalues --   -0.45932  -0.45666  -0.45036  -0.44394  -0.44343
 Alpha  occ. eigenvalues --   -0.44174  -0.44155  -0.44099  -0.44072  -0.43995
 Alpha  occ. eigenvalues --   -0.43866  -0.43534  -0.43469  -0.43054  -0.43018
 Alpha  occ. eigenvalues --   -0.42708  -0.41926  -0.41757  -0.41725  -0.41639
 Alpha  occ. eigenvalues --   -0.41566  -0.41521  -0.41415  -0.41190  -0.40852
 Alpha  occ. eigenvalues --   -0.40647  -0.40062  -0.39862  -0.39713  -0.39528
 Alpha  occ. eigenvalues --   -0.39156  -0.38967  -0.38871  -0.38729  -0.38566
 Alpha  occ. eigenvalues --   -0.38472  -0.38456  -0.38355  -0.38116  -0.36650
 Alpha  occ. eigenvalues --   -0.36375  -0.35821  -0.35707  -0.35357  -0.34129
 Alpha  occ. eigenvalues --   -0.33720  -0.33356  -0.32839  -0.31729  -0.31646
 Alpha  occ. eigenvalues --   -0.31409  -0.30045  -0.28419  -0.28257  -0.27568
 Alpha  occ. eigenvalues --   -0.27313  -0.27187  -0.26998  -0.26852  -0.26273
 Alpha  occ. eigenvalues --   -0.26069  -0.25976  -0.25955  -0.25590  -0.25057
 Alpha  occ. eigenvalues --   -0.24757  -0.23734  -0.22243  -0.20909  -0.20385
 Alpha virt. eigenvalues --   -0.10380  -0.09626  -0.06276  -0.05431  -0.03720
 Alpha virt. eigenvalues --   -0.03554  -0.03217  -0.03201  -0.02305  -0.02100
 Alpha virt. eigenvalues --   -0.01981  -0.01286   0.00451   0.00653   0.00921

 Mulliken charges:
               1
     1  C    0.287729
     2  C    0.321569
     3  C   -0.106451
     4  C    0.315703
     5  C    0.308906
     6  C    0.083182
     7  C    0.294521
     8  C    0.321756
     9  C   -0.111950
    10  C    0.318949
    11  C   -0.155980
    12  C    0.317919
    13  H    0.111012
    14  H    0.102042
    15  H    0.102185
    16  N   -0.658388
    17  N   -0.660707
    18  N   -0.646110
    19  N   -0.646555
    20  C   -0.112029
    21  H    0.102012
    22  C   -0.133650
    23  H    0.108537
    24  C    0.093626
    25  C   -0.105673
    26  H    0.102975
    27  C    0.216542
    28  C    0.012271
    29  C    0.016041
    30  C    0.002546
    31  C   -0.256752
    32  C    0.350223
    33  C    0.352078
    34  C    0.275170
    35  C    0.275388
    36  C    0.289326
    37  C   -0.252582
    38  C    0.350045
    39  C    0.348908
    40  C    0.274906
    41  C    0.274731
    42  C    0.288897
    43  C   -0.261662
    44  C    0.352756
    45  C    0.355899
    46  C    0.274969
    47  C    0.276070
    48  C    0.289581
    49  C   -0.245872
    50  C   -0.066787
    51  H    0.093488
    52  C   -0.351013
    53  C   -0.050564
    54  H    0.119789
    55  F   -0.284309
    56  F   -0.285716
    57  F   -0.281983
    58  F   -0.285761
    59  F   -0.284300
    60  F   -0.284174
    61  F   -0.285982
    62  F   -0.282330
    63  F   -0.286164
    64  F   -0.285143
    65  F   -0.284888
    66  F   -0.286321
    67  F   -0.282471
    68  F   -0.285630
    69  F   -0.283191
    70  H    0.109861
    71  H    0.094469
    72  C   -0.063575
    73  C   -0.013743
    74  C   -0.287174
    75  H    0.127496
    76  S    0.248877
    77  S    0.282050
    78  C   -0.283269
    79  H    0.139621
    80  Pd   0.544937
    81  O   -0.524362
    82  H    0.333654
 Sum of Mulliken charges =   0.00000

 Dipole moment (field-independent basis, Debye):
    X=              1.7902    Y=             -4.1962    Z=             -1.1391  Tot=              4.7022
 Quadrupole moment (field-independent basis, Debye-Ang):
   XX=           -403.9712   YY=           -356.4963   ZZ=           -414.7067
   XY=            -10.5737   XZ=              1.8482   YZ=             12.8562

 Normal termination of Gaussian 16 at Sat Sep  3 17:00:32 2022.
