 Gaussian 16, Revision C.01,
 Gaussian 16:  ES64L-G16RevC.01  3-Jul-2019

 ----------------------------------------------------------------
 # td=(nstates=75) b3lyp/genecp geom=connectivity scf=maxcyc=1000
 ----------------------------------------------------------------

 -----
 title
 -----
 Symbolic Z-matrix:
 Charge = -1 Multiplicity = 1

                         Standard orientation:
 ---------------------------------------------------------------------
 Center     Atomic      Atomic             Coordinates (Angstroms)
 Number     Number       Type             X           Y           Z
 ---------------------------------------------------------------------
      1          6           0       -1.990458   -2.850386   -0.377567
      2          6           0        2.210748    1.693504   -0.057016
      3          6           0        4.235590    0.702407    0.118041
      4          6           0        3.192323   -0.290841    0.046384
      5          6           0        2.394058   -2.651883   -0.080895
      6          6           0        1.396643   -4.653805   -0.367939
      7          6           0        0.432989   -3.606945   -0.393716
      8          6           0       -0.145073    2.491434   -0.106752
      9          6           0       -1.144442    3.540551   -0.082679
     10          6           0       -2.923495   -0.864592   -0.081237
     11          6           0       -3.970535   -1.818610   -0.077128
     12          6           0       -2.129779    1.508246   -0.038426
     13          1           0       -5.022826   -1.595390    0.023154
     14          1           0       -0.937467    4.601441   -0.095303
     15          1           0        5.292753    0.494045    0.206724
     16          7           0        1.042030   -2.402501   -0.212469
     17          7           0       -1.717956   -1.513180   -0.240237
     18          7           0        1.968092    0.347380   -0.058682
     19          7           0       -0.768766    1.273635   -0.093454
     20          6           0        3.635193    1.923577    0.045656
     21          1           0        4.111790    2.893465    0.070719
     22          6           0        2.621403   -4.063199   -0.160615
     23          1           0        3.583689   -4.550222   -0.082656
     24          6           0       -3.415372   -3.077381   -0.264220
     25          6           0       -2.361821    2.935027   -0.028952
     26          1           0       -3.331985    3.410597    0.007627
     27          6           0       -0.983854   -3.877762   -0.608614
     28          6           0       -3.116960    0.535690   -0.000991
     29          6           0        3.392613   -1.666356    0.053973
     30          6           0        1.239846    2.708167   -0.107666
     31          6           0        4.802735   -2.154517    0.187566
     32          6           0        5.622348   -2.358607   -0.927887
     33          6           0        5.363797   -2.443368    1.436326
     34          6           0        6.932418   -2.821863   -0.815269
     35          6           0        6.670794   -2.907703    1.576807
     36          6           0        7.457760   -3.097972    0.444182
     37          6           0        1.721820    4.123203   -0.125123
     38          6           0        2.135570    4.747064   -1.309218
     39          6           0        1.789808    4.900102    1.038584
     40          6           0        2.591294    6.064186   -1.342735
     41          6           0        2.238625    6.219968    1.033444
     42          6           0        2.641643    6.804002   -0.164407
     43          6           0       -4.534966    1.006382    0.112107
     44          6           0       -5.322410    1.255222   -1.017533
     45          6           0       -5.144271    1.210346    1.355057
     46          6           0       -6.644315    1.687698   -0.924257
     47          6           0       -6.464512    1.641363    1.476470
     48          6           0       -7.217316    1.880257    0.329999
     49          6           0       -4.223097   -4.298951   -0.251066
     50          6           0       -5.206338   -6.396391   -0.651185
     51          1           0       -3.251685   -5.752248   -1.501956
     52          9           0        4.641894   -2.272518    2.555651
     53          9           0        7.178965   -3.171671    2.793647
     54          9           0        8.718956   -3.543531    0.566122
     55          9           0        7.693236   -3.003551   -1.909297
     56          9           0        5.157601   -2.104751   -2.161916
     57          9           0        2.098559    4.076273   -2.472401
     58          9           0        2.977883    6.628963   -2.500841
     59          9           0        3.077240    8.074593   -0.182981
     60          9           0        2.290461    6.933283    2.172924
     61          9           0        1.419791    4.378016    2.219888
     62          9           0       -4.809660    1.085800   -2.247135
     63          9           0       -7.369912    1.923083   -2.031804
     64          9           0       -8.489407    2.298512    0.433299
     65          9           0       -7.016730    1.830394    2.687987
     66          9           0       -4.455387    0.993115    2.487233
     67          1           0       -5.277886   -7.390392   -1.080640
     68          8           0       -1.313640   -5.028390   -0.969638
     69          6           0       -4.111025   -5.514783   -0.893213
     70          6           0       -6.156793   -5.866187    0.182152
     71          1           0       -7.072591   -6.320433    0.536525
     72         16           0       -5.719899   -4.268639    0.691305
     73         46           0        0.130748   -0.574255   -0.161710
     74          1           0        1.155011   -5.698970   -0.491458
 ---------------------------------------------------------------------

 SCF Done:  E(RB3LYP) =  -3923.40987613     A.U. after   28 cycles

 Excitation energies and oscillator strengths:

 Excited State   1:      Singlet-A      1.8820 eV  658.78 nm  f=0.1845  <S**2>=0.000
     233 -> 236       -0.12030
     234 -> 235        0.69290
 This state for optimization and/or second-order correction.
 Total Energy, E(TD-HF/TD-DFT) =  -3923.34071293
 Copying the excited state density for this state as the 1-particle RhoCI density.

 Excited State   2:      Singlet-A      2.2399 eV  553.54 nm  f=0.0018  <S**2>=0.000
     233 -> 235        0.52396
     234 -> 236        0.46758

 Excited State   3:      Singlet-A      2.5222 eV  491.56 nm  f=0.0000  <S**2>=0.000
     234 -> 237       -0.16216
     234 -> 243        0.67814

 Excited State   4:      Singlet-A      2.5592 eV  484.46 nm  f=0.1172  <S**2>=0.000
     232 -> 235        0.52824
     233 -> 235       -0.31238
     234 -> 236        0.31099

 Excited State   5:      Singlet-A      2.6809 eV  462.47 nm  f=0.0076  <S**2>=0.000
     232 -> 235        0.13837
     234 -> 237        0.65735
     234 -> 238       -0.12257
     234 -> 243        0.14891

 Excited State   6:      Singlet-A      2.7152 eV  456.63 nm  f=0.0021  <S**2>=0.000
     234 -> 238       -0.47679
     234 -> 239        0.48344
     234 -> 240       -0.13148

 Excited State   7:      Singlet-A      2.7712 eV  447.41 nm  f=0.0032  <S**2>=0.000
     234 -> 238       -0.18482
     234 -> 239       -0.19326
     234 -> 241        0.63808

 Excited State   8:      Singlet-A      2.8172 eV  440.10 nm  f=0.0002  <S**2>=0.000
     234 -> 238        0.45050
     234 -> 239        0.46053
     234 -> 241        0.26314

 Excited State   9:      Singlet-A      2.8599 eV  433.53 nm  f=0.0002  <S**2>=0.000
     234 -> 238       -0.11901
     234 -> 240        0.68444

 Excited State  10:      Singlet-A      2.9218 eV  424.34 nm  f=0.0066  <S**2>=0.000
     231 -> 235        0.18067
     234 -> 242        0.67270

 Excited State  11:      Singlet-A      2.9258 eV  423.76 nm  f=0.0605  <S**2>=0.000
     231 -> 235        0.59437
     233 -> 236        0.27185
     234 -> 242       -0.19328

 Excited State  12:      Singlet-A      2.9569 eV  419.30 nm  f=0.1499  <S**2>=0.000
     231 -> 235       -0.28119
     233 -> 236        0.58551
     234 -> 236        0.11006

 Excited State  13:      Singlet-A      3.0039 eV  412.75 nm  f=0.3617  <S**2>=0.000
     232 -> 235        0.30080
     233 -> 235        0.22215
     233 -> 236        0.10229
     234 -> 236       -0.27702
     234 -> 244        0.13374
     234 -> 245        0.41185
     234 -> 246        0.16641

 Excited State  14:      Singlet-A      3.0247 eV  409.90 nm  f=0.0160  <S**2>=0.000
     234 -> 244        0.68083
     234 -> 245       -0.14577

 Excited State  15:      Singlet-A      3.0614 eV  404.99 nm  f=0.1630  <S**2>=0.000
     230 -> 235       -0.12181
     232 -> 235       -0.16962
     233 -> 235       -0.14060
     234 -> 236        0.17528
     234 -> 245        0.52610
     234 -> 246       -0.30763

 Excited State  16:      Singlet-A      3.1136 eV  398.20 nm  f=0.0809  <S**2>=0.000
     230 -> 235       -0.40563
     232 -> 236       -0.10356
     234 -> 246        0.52311

 Excited State  17:      Singlet-A      3.1513 eV  393.44 nm  f=0.2214  <S**2>=0.000
     229 -> 235       -0.11637
     230 -> 235        0.53619
     232 -> 235       -0.15618
     232 -> 236       -0.12564
     233 -> 235       -0.13887
     234 -> 236        0.15138
     234 -> 245        0.11572
     234 -> 246        0.28741

 Excited State  18:      Singlet-A      3.2001 eV  387.44 nm  f=0.0029  <S**2>=0.000
     228 -> 235       -0.40750
     229 -> 243       -0.11092
     231 -> 243       -0.10509
     233 -> 237       -0.11303
     233 -> 243        0.49815

 Excited State  19:      Singlet-A      3.2183 eV  385.25 nm  f=0.0104  <S**2>=0.000
     228 -> 235        0.53322
     229 -> 235       -0.14209
     233 -> 243        0.40209

 Excited State  20:      Singlet-A      3.2456 eV  382.00 nm  f=0.1434  <S**2>=0.000
     232 -> 235       -0.11252
     232 -> 236        0.47710
     233 -> 235       -0.13347
     234 -> 236        0.13353
     234 -> 247        0.41424

 Excited State  21:      Singlet-A      3.3018 eV  375.51 nm  f=0.0310  <S**2>=0.000
     231 -> 236        0.10812
     232 -> 236       -0.38765
     234 -> 247        0.52664

 Excited State  22:      Singlet-A      3.3761 eV  367.24 nm  f=0.0045  <S**2>=0.000
     229 -> 243       -0.11251
     232 -> 237        0.13364
     232 -> 243       -0.26423
     233 -> 237        0.51850
     233 -> 238       -0.19670
     233 -> 241        0.24171

 Excited State  23:      Singlet-A      3.3898 eV  365.75 nm  f=0.0004  <S**2>=0.000
     229 -> 243        0.16279
     231 -> 243        0.10268
     232 -> 243        0.46549
     233 -> 238       -0.25081
     233 -> 239        0.11367
     233 -> 241        0.28525
     233 -> 243        0.18066

 Excited State  24:      Singlet-A      3.4006 eV  364.59 nm  f=0.0202  <S**2>=0.000
     228 -> 235        0.13102
     228 -> 243       -0.34561
     229 -> 235        0.38525
     229 -> 243        0.14154
     231 -> 236        0.28161
     231 -> 243       -0.11652
     232 -> 235       -0.10886
     232 -> 243        0.10854
     233 -> 237        0.13273
     233 -> 241       -0.15283

 Excited State  25:      Singlet-A      3.4033 eV  364.30 nm  f=0.0020  <S**2>=0.000
     228 -> 243        0.17000
     229 -> 235       -0.10929
     231 -> 236       -0.11701
     232 -> 243        0.21197
     233 -> 237        0.36891
     233 -> 238        0.22897
     233 -> 239       -0.14822
     233 -> 241       -0.35867
     233 -> 243        0.12675

 Excited State  26:      Singlet-A      3.4243 eV  362.07 nm  f=0.0007  <S**2>=0.000
     230 -> 236        0.16895
     232 -> 239        0.10033
     233 -> 238       -0.29863
     233 -> 239        0.43015
     233 -> 240       -0.11189
     233 -> 241       -0.37231

 Excited State  27:      Singlet-A      3.4370 eV  360.73 nm  f=0.0026  <S**2>=0.000
     214 -> 243        0.15032
     228 -> 243       -0.14135
     229 -> 235        0.11770
     229 -> 243       -0.11172
     230 -> 243       -0.16331
     231 -> 243        0.59078

 Excited State  28:      Singlet-A      3.4574 eV  358.60 nm  f=0.0094  <S**2>=0.000
     228 -> 243        0.17548
     230 -> 236        0.53764
     230 -> 247        0.17084
     231 -> 236        0.17858
     233 -> 238        0.10772
     233 -> 241        0.15092

 Excited State  29:      Singlet-A      3.4842 eV  355.84 nm  f=0.0004  <S**2>=0.000
     233 -> 238        0.44564
     233 -> 239        0.46904
     233 -> 241        0.17821
     233 -> 242        0.16149

 Excited State  30:      Singlet-A      3.5019 eV  354.05 nm  f=0.0142  <S**2>=0.000
     228 -> 235        0.10281
     228 -> 243        0.31801
     229 -> 235        0.48018
     231 -> 236       -0.27717
     232 -> 236       -0.17769

 Excited State  31:      Singlet-A      3.5289 eV  351.34 nm  f=0.0003  <S**2>=0.000
     233 -> 239        0.14635
     233 -> 240        0.48884
     233 -> 242       -0.47029

 Excited State  32:      Singlet-A      3.5393 eV  350.31 nm  f=0.0001  <S**2>=0.000
     233 -> 238       -0.13919
     233 -> 240        0.47504
     233 -> 242        0.49035

 Excited State  33:      Singlet-A      3.5632 eV  347.96 nm  f=0.0030  <S**2>=0.000
     225 -> 235        0.11901
     227 -> 235       -0.15353
     228 -> 243        0.35373
     230 -> 236       -0.23794
     231 -> 236        0.48046

 Excited State  34:      Singlet-A      3.7129 eV  333.93 nm  f=0.0299  <S**2>=0.000
     227 -> 235       -0.16627
     233 -> 245       -0.14630
     233 -> 246        0.64315

 Excited State  35:      Singlet-A      3.7194 eV  333.34 nm  f=0.0190  <S**2>=0.000
     227 -> 235       -0.13219
     232 -> 244        0.10827
     233 -> 244        0.64877
     233 -> 245        0.15889

 Excited State  36:      Singlet-A      3.7280 eV  332.58 nm  f=0.0335  <S**2>=0.000
     227 -> 235       -0.18524
     232 -> 245        0.12620
     233 -> 244       -0.21714
     233 -> 245        0.61241

 Excited State  37:      Singlet-A      3.7715 eV  328.74 nm  f=0.0752  <S**2>=0.000
     225 -> 235       -0.17597
     227 -> 235        0.51432
     229 -> 236        0.16211
     231 -> 236        0.13060
     233 -> 245        0.21474
     233 -> 246        0.22723
     233 -> 247        0.10367

 Excited State  38:      Singlet-A      3.7912 eV  327.03 nm  f=0.0005  <S**2>=0.000
     232 -> 237        0.25147
     232 -> 238       -0.26788
     232 -> 241        0.58397

 Excited State  39:      Singlet-A      3.8051 eV  325.84 nm  f=0.0355  <S**2>=0.000
     226 -> 235        0.62498
     227 -> 235        0.20361
     229 -> 236       -0.10806
     233 -> 247       -0.17747

 Excited State  40:      Singlet-A      3.8250 eV  324.14 nm  f=0.0024  <S**2>=0.000
     232 -> 237        0.54618
     232 -> 238        0.22810
     232 -> 239       -0.28168
     232 -> 241       -0.12943
     233 -> 237       -0.12402

 Excited State  41:      Singlet-A      3.8319 eV  323.56 nm  f=0.0016  <S**2>=0.000
     228 -> 236        0.67799
     229 -> 236       -0.14138

 Excited State  42:      Singlet-A      3.8501 eV  322.03 nm  f=0.0965  <S**2>=0.000
     225 -> 235        0.58085
     229 -> 236        0.12291
     233 -> 247        0.27932

 Excited State  43:      Singlet-A      3.8633 eV  320.93 nm  f=0.0248  <S**2>=0.000
     232 -> 237        0.27348
     232 -> 238       -0.33274
     232 -> 239        0.39059
     232 -> 241       -0.30294
     233 -> 247        0.14814

 Excited State  44:      Singlet-A      3.8899 eV  318.73 nm  f=0.0646  <S**2>=0.000
     225 -> 235       -0.22082
     226 -> 235        0.13491
     229 -> 236       -0.24928
     230 -> 236       -0.13842
     233 -> 247        0.54628

 Excited State  45:      Singlet-A      3.9096 eV  317.13 nm  f=0.0006  <S**2>=0.000
     232 -> 238        0.40121
     232 -> 239        0.42728
     232 -> 241        0.14696
     232 -> 242        0.32974

 Excited State  46:      Singlet-A      3.9395 eV  314.72 nm  f=0.0008  <S**2>=0.000
     232 -> 238       -0.14040
     232 -> 239       -0.18972
     232 -> 240       -0.39863
     232 -> 242        0.51720

 Excited State  47:      Singlet-A      3.9596 eV  313.12 nm  f=0.0002  <S**2>=0.000
     232 -> 238       -0.23756
     232 -> 240        0.55159
     232 -> 242        0.33240

 Excited State  48:      Singlet-A      4.0163 eV  308.70 nm  f=0.1237  <S**2>=0.000
     225 -> 235       -0.19454
     226 -> 235        0.17104
     227 -> 235       -0.16637
     228 -> 236        0.12346
     229 -> 236        0.52880
     232 -> 236       -0.10682
     232 -> 246        0.12939
     233 -> 247        0.12657
     234 -> 248       -0.12073

 Excited State  49:      Singlet-A      4.0617 eV  305.26 nm  f=0.0254  <S**2>=0.000
     227 -> 236       -0.12768
     229 -> 236        0.14835
     230 -> 243       -0.12788
     232 -> 247        0.10574
     234 -> 248        0.61129

 Excited State  50:      Singlet-A      4.0956 eV  302.73 nm  f=0.0004  <S**2>=0.000
     229 -> 243       -0.10504
     231 -> 237        0.45583
     231 -> 238        0.26554
     231 -> 239       -0.40733

 Excited State  51:      Singlet-A      4.1086 eV  301.77 nm  f=0.0094  <S**2>=0.000
     229 -> 243        0.36122
     230 -> 243        0.31147
     231 -> 239       -0.11856
     231 -> 243        0.13716
     232 -> 243       -0.28663
     232 -> 246       -0.23567
     233 -> 243        0.11671
     234 -> 248        0.10096

 Excited State  52:      Singlet-A      4.1230 eV  300.72 nm  f=0.0189  <S**2>=0.000
     229 -> 243        0.13616
     232 -> 245       -0.23500
     232 -> 246        0.58774
     234 -> 248        0.14531

 Excited State  53:      Singlet-A      4.1468 eV  298.99 nm  f=0.0043  <S**2>=0.000
     232 -> 244        0.27864
     232 -> 245        0.57917
     232 -> 246        0.22094
     233 -> 245       -0.12924

 Excited State  54:      Singlet-A      4.1651 eV  297.67 nm  f=0.0038  <S**2>=0.000
     232 -> 244        0.62687
     232 -> 245       -0.26125
     233 -> 244       -0.10363

 Excited State  55:      Singlet-A      4.1770 eV  296.83 nm  f=0.0017  <S**2>=0.000
     231 -> 237        0.49237
     231 -> 238       -0.34750
     231 -> 239        0.31310

 Excited State  56:      Singlet-A      4.2071 eV  294.71 nm  f=0.0046  <S**2>=0.000
     234 -> 249       -0.21188
     234 -> 250        0.65726

 Excited State  57:      Singlet-A      4.2282 eV  293.23 nm  f=0.0001  <S**2>=0.000
     231 -> 238        0.36687
     231 -> 239        0.37491
     231 -> 240        0.41988
     231 -> 241       -0.17935

 Excited State  58:      Singlet-A      4.2301 eV  293.10 nm  f=0.0001  <S**2>=0.000
     234 -> 249        0.65568
     234 -> 250        0.19752

 Excited State  59:      Singlet-A      4.2499 eV  291.74 nm  f=0.0032  <S**2>=0.000
     231 -> 240        0.31206
     231 -> 241        0.59478
     232 -> 247        0.12695

 Excited State  60:      Singlet-A      4.2619 eV  290.92 nm  f=0.0020  <S**2>=0.000
     232 -> 247        0.11190
     234 -> 251        0.68000

 Excited State  61:      Singlet-A      4.2661 eV  290.63 nm  f=0.0875  <S**2>=0.000
     224 -> 235       -0.14288
     227 -> 236        0.23038
     231 -> 241       -0.12799
     232 -> 247        0.57601
     234 -> 251       -0.10320

 Excited State  62:      Singlet-A      4.2796 eV  289.71 nm  f=0.0439  <S**2>=0.000
     224 -> 235       -0.37640
     226 -> 236       -0.10881
     227 -> 236        0.20798
     232 -> 247       -0.11316
     234 -> 252        0.50175

 Excited State  63:      Singlet-A      4.2830 eV  289.48 nm  f=0.0566  <S**2>=0.000
     224 -> 235        0.38498
     227 -> 236       -0.12829
     231 -> 238        0.13573
     231 -> 240       -0.17103
     232 -> 247        0.20510
     234 -> 252        0.40868

 Excited State  64:      Singlet-A      4.2873 eV  289.19 nm  f=0.0074  <S**2>=0.000
     224 -> 235        0.13788
     231 -> 238       -0.35323
     231 -> 239       -0.23137
     231 -> 240        0.41516
     231 -> 241       -0.25387
     234 -> 252        0.17077

 Excited State  65:      Singlet-A      4.3371 eV  285.87 nm  f=0.0106  <S**2>=0.000
     215 -> 243        0.10145
     224 -> 235       -0.17248
     227 -> 236       -0.20132
     234 -> 248       -0.10352
     234 -> 253        0.60871

 Excited State  66:      Singlet-A      4.3541 eV  284.75 nm  f=0.0094  <S**2>=0.000
     215 -> 243       -0.51793
     216 -> 243        0.15385
     224 -> 243        0.10033
     227 -> 243       -0.19646
     229 -> 243       -0.16476
     230 -> 237       -0.11306
     230 -> 243        0.20752
     234 -> 253        0.12793

 Excited State  67:      Singlet-A      4.3679 eV  283.86 nm  f=0.0517  <S**2>=0.000
     224 -> 235       -0.22488
     225 -> 236        0.20563
     227 -> 236       -0.27242
     229 -> 243       -0.11984
     230 -> 243        0.16754
     231 -> 242        0.41312
     234 -> 253       -0.19808
     234 -> 254        0.17714

 Excited State  68:      Singlet-A      4.3703 eV  283.70 nm  f=0.0134  <S**2>=0.000
     224 -> 235        0.14023
     227 -> 236        0.17009
     229 -> 243        0.11120
     230 -> 243       -0.15341
     231 -> 242        0.53414
     234 -> 253        0.14017
     234 -> 254       -0.27251

 Excited State  69:      Singlet-A      4.3779 eV  283.21 nm  f=0.0119  <S**2>=0.000
     215 -> 243       -0.14354
     226 -> 243        0.11120
     227 -> 243       -0.12568
     229 -> 243        0.21238
     230 -> 237        0.24459
     230 -> 239       -0.11438
     230 -> 243       -0.28542
     234 -> 254        0.44166

 Excited State  70:      Singlet-A      4.3807 eV  283.03 nm  f=0.0100  <S**2>=0.000
     215 -> 243        0.11321
     225 -> 236       -0.18280
     226 -> 236        0.24979
     227 -> 236        0.26148
     230 -> 237       -0.19465
     231 -> 242        0.15613
     234 -> 254        0.41191

 Excited State  71:      Singlet-A      4.3927 eV  282.25 nm  f=0.0010  <S**2>=0.000
     225 -> 236        0.18558
     226 -> 236        0.50613
     227 -> 236        0.11135
     230 -> 237        0.16878
     230 -> 238        0.13929
     230 -> 239       -0.22866
     230 -> 247       -0.13059

 Excited State  72:      Singlet-A      4.4122 eV  281.00 nm  f=0.0451  <S**2>=0.000
     225 -> 236       -0.29812
     229 -> 237        0.16017
     229 -> 243       -0.10461
     230 -> 237        0.36049
     230 -> 238        0.18736
     230 -> 239       -0.23169
     230 -> 243        0.28756

 Excited State  73:      Singlet-A      4.4207 eV  280.47 nm  f=0.0070  <S**2>=0.000
     227 -> 236       -0.14390
     231 -> 244        0.15375
     231 -> 245        0.61315

 Excited State  74:      Singlet-A      4.4334 eV  279.66 nm  f=0.0149  <S**2>=0.000
     226 -> 236        0.17465
     229 -> 237        0.15818
     230 -> 237        0.30313
     230 -> 238       -0.30693
     230 -> 239        0.31731
     230 -> 247        0.19832
     231 -> 245        0.15863
     231 -> 247        0.10534

 Excited State  75:      Singlet-A      4.4532 eV  278.42 nm  f=0.0167  <S**2>=0.000
     225 -> 236        0.37081
     227 -> 236        0.20340
     230 -> 238        0.22960
     230 -> 241       -0.30563
     230 -> 247        0.15350
     231 -> 245        0.18740
     231 -> 246       -0.11209
     231 -> 247        0.15517

 The electronic state is 1-A.
 Alpha  occ. eigenvalues --  -88.81438 -24.70059 -24.69987 -24.69731 -24.69425
 Alpha  occ. eigenvalues --  -24.69412 -24.69357 -24.69353 -24.69100 -24.69098
 Alpha  occ. eigenvalues --  -24.68179 -24.68154 -24.68139 -24.68137 -24.67914
 Alpha  occ. eigenvalues --  -24.67908 -19.02148 -14.28048 -14.27945 -14.27932
 Alpha  occ. eigenvalues --  -14.27742 -10.26199 -10.26151 -10.25899 -10.25480
 Alpha  occ. eigenvalues --  -10.25472 -10.25436 -10.25432 -10.25184 -10.25182
 Alpha  occ. eigenvalues --  -10.25166 -10.25162 -10.25131 -10.25123 -10.24916
 Alpha  occ. eigenvalues --  -10.24912 -10.17967 -10.17919 -10.17726 -10.17202
 Alpha  occ. eigenvalues --  -10.15759 -10.15720 -10.15197 -10.15163 -10.14767
 Alpha  occ. eigenvalues --  -10.14521 -10.14308 -10.14296 -10.14128 -10.13699
 Alpha  occ. eigenvalues --  -10.13575 -10.13522 -10.12842 -10.12316 -10.12258
 Alpha  occ. eigenvalues --  -10.12063 -10.11986 -10.11933 -10.11463 -10.10355
 Alpha  occ. eigenvalues --  -10.10063 -10.10016 -10.09687  -7.88740  -5.85088
 Alpha  occ. eigenvalues --   -5.84725  -5.84383  -3.29684  -2.02838  -2.02731
 Alpha  occ. eigenvalues --   -1.98579  -1.22045  -1.21987  -1.21732  -1.20986
 Alpha  occ. eigenvalues --   -1.20940  -1.20689  -1.20415  -1.20368  -1.20118
 Alpha  occ. eigenvalues --   -1.19266  -1.19246  -1.19214  -1.19192  -1.19008
 Alpha  occ. eigenvalues --   -1.18951  -0.92495  -0.89682  -0.88800  -0.88023
 Alpha  occ. eigenvalues --   -0.87711  -0.85504  -0.85438  -0.85233  -0.79936
 Alpha  occ. eigenvalues --   -0.77691  -0.76811  -0.76194  -0.73151  -0.73137
 Alpha  occ. eigenvalues --   -0.72888  -0.71663  -0.71017  -0.70558  -0.70431
 Alpha  occ. eigenvalues --   -0.69949  -0.69432  -0.68406  -0.65621  -0.65203
 Alpha  occ. eigenvalues --   -0.64922  -0.63263  -0.62400  -0.62273  -0.61427
 Alpha  occ. eigenvalues --   -0.61423  -0.61176  -0.60462  -0.58164  -0.57554
 Alpha  occ. eigenvalues --   -0.54943  -0.54779  -0.54568  -0.54126  -0.54110
 Alpha  occ. eigenvalues --   -0.53879  -0.53371  -0.53125  -0.52867  -0.52694
 Alpha  occ. eigenvalues --   -0.51560  -0.50721  -0.50001  -0.49920  -0.49887
 Alpha  occ. eigenvalues --   -0.49645  -0.49638  -0.49257  -0.49060  -0.48796
 Alpha  occ. eigenvalues --   -0.48178  -0.47839  -0.47691  -0.47607  -0.47460
 Alpha  occ. eigenvalues --   -0.47033  -0.46732  -0.46693  -0.46494  -0.46467
 Alpha  occ. eigenvalues --   -0.45787  -0.44763  -0.44701  -0.44626  -0.44450
 Alpha  occ. eigenvalues --   -0.44046  -0.43908  -0.43682  -0.43322  -0.43271
 Alpha  occ. eigenvalues --   -0.42874  -0.41752  -0.41732  -0.41686  -0.41666
 Alpha  occ. eigenvalues --   -0.41447  -0.41439  -0.39794  -0.39698  -0.39632
 Alpha  occ. eigenvalues --   -0.39437  -0.39406  -0.39376  -0.39234  -0.38930
 Alpha  occ. eigenvalues --   -0.37817  -0.37757  -0.37586  -0.36673  -0.36651
 Alpha  occ. eigenvalues --   -0.36407  -0.35634  -0.35618  -0.34954  -0.34843
 Alpha  occ. eigenvalues --   -0.34804  -0.34588  -0.34397  -0.33864  -0.33824
 Alpha  occ. eigenvalues --   -0.33798  -0.33743  -0.33576  -0.33115  -0.32710
 Alpha  occ. eigenvalues --   -0.32253  -0.32215  -0.32063  -0.31452  -0.30977
 Alpha  occ. eigenvalues --   -0.30852  -0.30596  -0.30422  -0.30040  -0.29960
 Alpha  occ. eigenvalues --   -0.29878  -0.29364  -0.28512  -0.27947  -0.25938
 Alpha  occ. eigenvalues --   -0.24649  -0.24422  -0.23985  -0.22576  -0.22444
 Alpha  occ. eigenvalues --   -0.22383  -0.21907  -0.21709  -0.21512  -0.21398
 Alpha  occ. eigenvalues --   -0.20996  -0.20979  -0.20731  -0.19609  -0.18152
 Alpha  occ. eigenvalues --   -0.17421  -0.17266  -0.16752  -0.16602  -0.15624
 Alpha  occ. eigenvalues --   -0.14980  -0.13575  -0.12046  -0.09769
 Alpha virt. eigenvalues --   -0.01815   0.00270   0.01941   0.02031   0.02092
 Alpha virt. eigenvalues --    0.02232   0.02304   0.02461   0.02720   0.03082
 Alpha virt. eigenvalues --    0.03130   0.03350   0.03814   0.06888   0.07081

 Mulliken charges:
               1
     1  C   -0.007645
     2  C    0.388791
     3  C   -0.256764
     4  C    0.383766
     5  C    0.194352
     6  C   -0.332866
     7  C    0.143479
     8  C    0.398032
     9  C   -0.321892
    10  C    0.136906
    11  C   -0.502825
    12  C    0.255742
    13  H    0.119672
    14  H    0.115192
    15  H    0.115841
    16  N    0.245844
    17  N    0.334232
    18  N    0.205741
    19  N    0.214846
    20  C   -0.218273
    21  H    0.114289
    22  C   -0.221078
    23  H    0.107351
    24  C    0.533723
    25  C   -0.313865
    26  H    0.117607
    27  C    0.269909
    28  C    0.166410
    29  C    0.122103
    30  C    0.141946
    31  C   -0.669297
    32  C    0.136374
    33  C    0.170376
    34  C    0.242600
    35  C    0.265768
    36  C    0.540321
    37  C   -0.615880
    38  C    0.079676
    39  C    0.027838
    40  C    0.370124
    41  C    0.357639
    42  C    0.464579
    43  C   -0.763007
    44  C    0.266407
    45  C    0.253707
    46  C    0.172430
    47  C    0.205666
    48  C    0.587454
    49  C   -0.343619
    50  C   -0.232878
    51  H    0.168825
    52  F   -0.281409
    53  F   -0.351373
    54  F   -0.352511
    55  F   -0.351075
    56  F   -0.282112
    57  F   -0.281889
    58  F   -0.355470
    59  F   -0.351422
    60  F   -0.354808
    61  F   -0.282823
    62  F   -0.278872
    63  F   -0.348130
    64  F   -0.352501
    65  F   -0.346405
    66  F   -0.280268
    67  H    0.119549
    68  O   -0.585010
    69  C    0.180054
    70  C   -0.117796
    71  H    0.140832
    72  S   -0.025492
    73  Pd  -0.339137
    74  H    0.142397
 Sum of Mulliken charges =  -1.00000

 Dipole moment (field-independent basis, Debye):
    X=              1.9485    Y=              5.2861    Z=              0.7989  Tot=              5.6902
 Quadrupole moment (field-independent basis, Debye-Ang):
   XX=           -463.4247   YY=           -451.1546   ZZ=           -411.1129
   XY=             -5.7474   XZ=              0.0140   YZ=             -3.1486

 Normal termination of Gaussian 16 at Sat Sep  3 20:33:28 2022.
