 Gaussian 16, Revision C.01,
 Gaussian 16:  ES64L-G16RevC.01  3-Jul-2019

 ----------------------------------------------------------------
 # td=(nstates=75) b3lyp/genecp geom=connectivity scf=maxcyc=1000
 ----------------------------------------------------------------

 -----
 title
 -----
 Symbolic Z-matrix:
 Charge = -1 Multiplicity = 1

                         Standard orientation:
 ---------------------------------------------------------------------
 Center     Atomic      Atomic             Coordinates (Angstroms)
 Number     Number       Type             X           Y           Z
 ---------------------------------------------------------------------
      1          6           0       -1.265703   -2.761702   -0.540392
      2          6           0        1.241863    2.829932   -0.161754
      3          6           0        3.471511    2.535518    0.074994
      4          6           0        2.796914    1.260292    0.042764
      5          6           0        2.781939   -1.232989   -0.021882
      6          6           0        2.519269   -3.462269   -0.378643
      7          6           0        1.265227   -2.761957   -0.540130
      8          6           0       -1.241338    2.830147   -0.161487
      9          6           0       -2.519833    3.499849   -0.067474
     10          6           0       -2.782132   -1.232511   -0.021970
     11          6           0       -3.445719   -2.484066   -0.041679
     12          6           0       -2.796643    1.260764    0.043094
     13          1           0       -4.500545   -2.639185    0.132811
     14          1           0       -2.666009    4.570580   -0.088793
     15          1           0        4.537984    2.674410    0.183552
     16          7           0        1.439592   -1.429441   -0.288819
     17          7           0       -1.439811   -1.429192   -0.288844
     18          7           0        1.437458    1.474265   -0.110428
     19          7           0       -1.437172    1.474508   -0.110293
     20          6           0        2.520501    3.499411   -0.068107
     21          1           0        2.666871    4.570111   -0.089614
     22          6           0        3.445248   -2.484696   -0.041234
     23          1           0        4.500015   -2.640009    0.133438
     24          6           0       -2.519918   -3.461766   -0.379214
     25          6           0       -3.470995    2.536114    0.075659
     26          1           0       -4.537419    2.675192    0.184457
     27          6           0       -0.000261   -3.365091   -0.937746
     28          6           0       -3.412852    0.020686    0.130758
     29          6           0        3.412905    0.020113    0.130574
     30          6           0        0.000313    3.477462   -0.226373
     31          6           0        4.893130    0.001838    0.358151
     32          6           0        5.804308    0.002772   -0.703844
     33          6           0        5.435862   -0.029122    1.647389
     34          6           0        7.183406   -0.020991   -0.502248
     35          6           0        6.810786   -0.054367    1.876674
     36          6           0        7.687644   -0.051212    0.795283
     37          6           0        0.000433    4.971131   -0.301442
     38          6           0        0.000409    5.644989   -1.529062
     39          6           0        0.000588    5.773872    0.846096
     40          6           0        0.000521    7.036338   -1.619085
     41          6           0        0.000725    7.166648    0.785230
     42          6           0        0.000689    7.799817   -0.454846
     43          6           0       -4.893063    0.002630    0.358454
     44          6           0       -5.804337    0.004707   -0.703455
     45          6           0       -5.435685   -0.029286    1.647716
     46          6           0       -7.183425   -0.018864   -0.501754
     47          6           0       -6.810594   -0.054368    1.877103
     48          6           0       -7.687551   -0.050058    0.795795
     49          6           0       -2.853381   -4.885812   -0.429962
     50          6           0       -3.097306   -7.157440   -0.978684
     51          1           0       -1.647056   -5.784152   -1.965412
     52          6           0        2.852393   -4.886412   -0.428945
     53          6           0        3.095806   -7.158279   -0.976913
     54          1           0        1.646032   -5.784922   -1.964260
     55          9           0        4.626974   -0.032026    2.719148
     56          9           0        7.297546   -0.080270    3.129747
     57          9           0        9.014185   -0.072729    1.002696
     58          9           0        8.030309   -0.013587   -1.546596
     59          9           0        5.361945    0.034235   -1.971268
     60          9           0        0.000268    4.950418   -2.678368
     61          9           0        0.000470    7.647976   -2.816839
     62          9           0        0.000816    9.140854   -0.527382
     63          9           0        0.000897    7.904329    1.909986
     64          9           0        0.000614    5.207498    2.064185
     65          9           0       -5.362084    0.037089   -1.970896
     66          9           0       -8.030419   -0.010364   -1.546021
     67          9           0       -9.014078   -0.071401    1.003314
     68          9           0       -7.297249   -0.081196    3.130197
     69          9           0       -4.626698   -0.033285    2.719393
     70          1           0        2.883524   -8.075234   -1.516879
     71          1           0       -2.885178   -8.074284   -1.518900
     72          8           0       -0.000294   -4.426954   -1.593729
     73          6           0        2.424318   -5.924949   -1.229307
     74          6           0       -2.425485   -5.924198   -1.230613
     75          6           0       -4.037064   -7.069844    0.015420
     76          1           0       -4.676743   -7.848692    0.408794
     77         16           0       -4.108867   -5.466662    0.669138
     78         16           0        4.107573   -5.467245    0.670518
     79          6           0        4.035501   -7.070595    0.017240
     80          1           0        4.674973   -7.849467    0.410902
     81         78           0        0.000014    0.024767   -0.218444
 ---------------------------------------------------------------------

 SCF Done:  E(RB3LYP) =  -4467.66244330     A.U. after   25 cycles

 Excitation energies and oscillator strengths:

 Excited State   1:      Singlet-A      1.9590 eV  632.89 nm  f=0.1949  <S**2>=0.000
     254 -> 257       -0.14679
     255 -> 256        0.68860
 This state for optimization and/or second-order correction.
 Total Energy, E(TD-HF/TD-DFT) =  -4467.59045035
 Copying the excited state density for this state as the 1-particle RhoCI density.

 Excited State   2:      Singlet-A      2.2304 eV  555.87 nm  f=0.0309  <S**2>=0.000
     254 -> 256        0.56240
     255 -> 257        0.42318

 Excited State   3:      Singlet-A      2.3397 eV  529.91 nm  f=0.0010  <S**2>=0.000
     249 -> 256        0.11130
     253 -> 256        0.69484

 Excited State   4:      Singlet-A      2.5796 eV  480.64 nm  f=0.0922  <S**2>=0.000
     252 -> 256        0.58336
     253 -> 257       -0.12938
     254 -> 256       -0.23879
     255 -> 257        0.27988

 Excited State   5:      Singlet-A      2.7511 eV  450.67 nm  f=0.0000  <S**2>=0.000
     255 -> 258        0.70287

 Excited State   6:      Singlet-A      2.8343 eV  437.44 nm  f=0.0208  <S**2>=0.000
     255 -> 259       -0.36045
     255 -> 260        0.58058

 Excited State   7:      Singlet-A      2.8527 eV  434.62 nm  f=0.0001  <S**2>=0.000
     255 -> 261        0.70113

 Excited State   8:      Singlet-A      2.9020 eV  427.23 nm  f=0.3204  <S**2>=0.000
     250 -> 256       -0.11427
     254 -> 257        0.65806
     255 -> 256        0.13031

 Excited State   9:      Singlet-A      2.9134 eV  425.56 nm  f=0.1180  <S**2>=0.000
     251 -> 256       -0.15947
     253 -> 257       -0.23369
     254 -> 256        0.13414
     255 -> 257       -0.20613
     255 -> 259        0.43914
     255 -> 260        0.37432

 Excited State  10:      Singlet-A      2.9214 eV  424.40 nm  f=0.2260  <S**2>=0.000
     251 -> 256        0.22039
     252 -> 256       -0.13200
     253 -> 257        0.31948
     254 -> 256       -0.19131
     255 -> 257        0.28742
     255 -> 259        0.41454
     255 -> 260        0.11599
     255 -> 267       -0.10649

 Excited State  11:      Singlet-A      2.9702 eV  417.42 nm  f=0.0117  <S**2>=0.000
     249 -> 256       -0.11516
     250 -> 256        0.68665

 Excited State  12:      Singlet-A      3.0076 eV  412.23 nm  f=0.0924  <S**2>=0.000
     252 -> 256       -0.15024
     253 -> 257       -0.19677
     254 -> 256       -0.11462
     255 -> 257        0.14287
     255 -> 262        0.62653

 Excited State  13:      Singlet-A      3.0090 eV  412.05 nm  f=0.0002  <S**2>=0.000
     255 -> 263        0.70198

 Excited State  14:      Singlet-A      3.0175 eV  410.89 nm  f=0.2647  <S**2>=0.000
     252 -> 256        0.27247
     253 -> 257        0.47119
     254 -> 256        0.16887
     255 -> 257       -0.20021
     255 -> 262        0.31237
     255 -> 265       -0.13445

 Excited State  15:      Singlet-A      3.1081 eV  398.91 nm  f=0.0041  <S**2>=0.000
     255 -> 264        0.70214

 Excited State  16:      Singlet-A      3.1266 eV  396.54 nm  f=0.0235  <S**2>=0.000
     249 -> 256       -0.21038
     251 -> 257       -0.13905
     252 -> 257        0.64037

 Excited State  17:      Singlet-A      3.1708 eV  391.02 nm  f=0.0156  <S**2>=0.000
     251 -> 256       -0.17693
     253 -> 257        0.18429
     255 -> 265        0.59435
     255 -> 267       -0.25473

 Excited State  18:      Singlet-A      3.1765 eV  390.32 nm  f=0.0078  <S**2>=0.000
     255 -> 266        0.69843

 Excited State  19:      Singlet-A      3.2500 eV  381.49 nm  f=0.0059  <S**2>=0.000
     251 -> 256        0.29013
     255 -> 265        0.30595
     255 -> 267        0.55440

 Excited State  20:      Singlet-A      3.2630 eV  379.97 nm  f=0.2444  <S**2>=0.000
     248 -> 256       -0.19437
     251 -> 256        0.51388
     252 -> 256        0.13419
     253 -> 257       -0.10727
     254 -> 256        0.13469
     255 -> 257       -0.17407
     255 -> 267       -0.29921

 Excited State  21:      Singlet-A      3.3111 eV  374.45 nm  f=0.0042  <S**2>=0.000
     254 -> 258        0.67873
     254 -> 261        0.13432

 Excited State  22:      Singlet-A      3.3126 eV  374.28 nm  f=0.0253  <S**2>=0.000
     249 -> 256        0.63752
     250 -> 256        0.10220
     251 -> 257       -0.11839
     252 -> 257        0.17296
     253 -> 256       -0.10036

 Excited State  23:      Singlet-A      3.3498 eV  370.13 nm  f=0.0020  <S**2>=0.000
     253 -> 261       -0.18976
     254 -> 259       -0.33438
     254 -> 260        0.57945

 Excited State  24:      Singlet-A      3.3674 eV  368.19 nm  f=0.0008  <S**2>=0.000
     253 -> 260       -0.18747
     254 -> 258       -0.15131
     254 -> 261        0.65599

 Excited State  25:      Singlet-A      3.4337 eV  361.08 nm  f=0.0001  <S**2>=0.000
     254 -> 259        0.59482
     254 -> 260        0.33544
     254 -> 262        0.13585

 Excited State  26:      Singlet-A      3.4455 eV  359.84 nm  f=0.0058  <S**2>=0.000
     248 -> 256        0.66074
     251 -> 256        0.15786

 Excited State  27:      Singlet-A      3.4952 eV  354.72 nm  f=0.0000  <S**2>=0.000
     253 -> 263        0.14357
     254 -> 259       -0.15547
     254 -> 262        0.64903

 Excited State  28:      Singlet-A      3.4958 eV  354.67 nm  f=0.0000  <S**2>=0.000
     253 -> 262        0.16893
     254 -> 263        0.68066

 Excited State  29:      Singlet-A      3.5474 eV  349.51 nm  f=0.0032  <S**2>=0.000
     245 -> 256        0.17541
     247 -> 256        0.12639
     248 -> 257        0.27297
     248 -> 265        0.12614
     251 -> 257       -0.32717
     252 -> 257       -0.10530
     254 -> 262       -0.15217
     254 -> 265        0.36915
     254 -> 267        0.14308

 Excited State  30:      Singlet-A      3.5786 eV  346.46 nm  f=0.0001  <S**2>=0.000
     253 -> 258        0.67052
     253 -> 261        0.14716
     254 -> 260        0.10702

 Excited State  31:      Singlet-A      3.5790 eV  346.42 nm  f=0.0043  <S**2>=0.000
     249 -> 257       -0.11771
     250 -> 257        0.69301

 Excited State  32:      Singlet-A      3.6143 eV  343.04 nm  f=0.0001  <S**2>=0.000
     252 -> 261        0.11698
     253 -> 259       -0.34005
     253 -> 260        0.56579
     254 -> 261        0.20070

 Excited State  33:      Singlet-A      3.6326 eV  341.31 nm  f=0.0041  <S**2>=0.000
     252 -> 260        0.11274
     253 -> 258       -0.16957
     253 -> 261        0.62932
     254 -> 260        0.15945
     254 -> 265        0.12200

 Excited State  34:      Singlet-A      3.6390 eV  340.71 nm  f=0.0646  <S**2>=0.000
     251 -> 257        0.36816
     253 -> 261       -0.14855
     254 -> 265        0.51738
     255 -> 268       -0.19664

 Excited State  35:      Singlet-A      3.6580 eV  338.94 nm  f=0.0024  <S**2>=0.000
     254 -> 264        0.68797
     254 -> 266        0.11175

 Excited State  36:      Singlet-A      3.6758 eV  337.30 nm  f=0.0019  <S**2>=0.000
     253 -> 267        0.16418
     254 -> 264       -0.12067
     254 -> 266        0.66759

 Excited State  37:      Singlet-A      3.6831 eV  336.63 nm  f=0.0014  <S**2>=0.000
     248 -> 257       -0.16199
     253 -> 266       -0.13844
     254 -> 265        0.15694
     254 -> 267       -0.39587
     255 -> 268        0.50334

 Excited State  38:      Singlet-A      3.6862 eV  336.35 nm  f=0.0080  <S**2>=0.000
     253 -> 259        0.58118
     253 -> 260        0.33886
     253 -> 262        0.15422

 Excited State  39:      Singlet-A      3.7102 eV  334.17 nm  f=0.0086  <S**2>=0.000
     245 -> 256       -0.10289
     247 -> 256       -0.14236
     251 -> 257        0.17331
     253 -> 266        0.15141
     254 -> 267        0.47729
     255 -> 268        0.41852

 Excited State  40:      Singlet-A      3.7413 eV  331.40 nm  f=0.0470  <S**2>=0.000
     253 -> 259       -0.17417
     253 -> 262        0.64213
     253 -> 265        0.13117
     254 -> 263       -0.13843

 Excited State  41:      Singlet-A      3.7430 eV  331.25 nm  f=0.0000  <S**2>=0.000
     253 -> 263        0.67445
     254 -> 262       -0.16153

 Excited State  42:      Singlet-A      3.7536 eV  330.31 nm  f=0.0452  <S**2>=0.000
     245 -> 256        0.21770
     247 -> 256        0.39005
     248 -> 257       -0.37289
     254 -> 267        0.20304
     255 -> 269        0.20483

 Excited State  43:      Singlet-A      3.7780 eV  328.18 nm  f=0.0028  <S**2>=0.000
     247 -> 256       -0.13512
     248 -> 257        0.14837
     255 -> 269        0.59099
     255 -> 277        0.24854

 Excited State  44:      Singlet-A      3.8098 eV  325.43 nm  f=0.1566  <S**2>=0.000
     246 -> 256       -0.20719
     249 -> 257       -0.12078
     252 -> 258        0.47367
     252 -> 261        0.18405
     253 -> 265        0.38627

 Excited State  45:      Singlet-A      3.8108 eV  325.35 nm  f=0.1606  <S**2>=0.000
     246 -> 256        0.23625
     249 -> 257        0.12829
     252 -> 258        0.42632
     252 -> 261        0.19835
     253 -> 262        0.12143
     253 -> 265       -0.40565

 Excited State  46:      Singlet-A      3.8280 eV  323.89 nm  f=0.0025  <S**2>=0.000
     245 -> 256       -0.35937
     247 -> 256        0.50827
     248 -> 257        0.20126
     251 -> 257        0.17073
     252 -> 260        0.11155

 Excited State  47:      Singlet-A      3.8340 eV  323.38 nm  f=0.0000  <S**2>=0.000
     252 -> 259       -0.32319
     252 -> 260        0.59222
     253 -> 261       -0.11747

 Excited State  48:      Singlet-A      3.8369 eV  323.13 nm  f=0.0871  <S**2>=0.000
     246 -> 256        0.62286
     253 -> 265        0.29559

 Excited State  49:      Singlet-A      3.8592 eV  321.27 nm  f=0.0004  <S**2>=0.000
     252 -> 258       -0.27767
     252 -> 261        0.63229

 Excited State  50:      Singlet-A      3.9100 eV  317.09 nm  f=0.0041  <S**2>=0.000
     245 -> 256        0.15610
     253 -> 264        0.66548

 Excited State  51:      Singlet-A      3.9195 eV  316.33 nm  f=0.0209  <S**2>=0.000
     249 -> 257        0.64657
     250 -> 257        0.10368
     253 -> 265        0.20722

 Excited State  52:      Singlet-A      3.9277 eV  315.66 nm  f=0.0015  <S**2>=0.000
     252 -> 259        0.55772
     252 -> 260        0.31380
     252 -> 262        0.19639
     253 -> 266        0.17310

 Excited State  53:      Singlet-A      3.9307 eV  315.43 nm  f=0.0021  <S**2>=0.000
     252 -> 259       -0.15979
     253 -> 266        0.62988
     254 -> 267       -0.19147

 Excited State  54:      Singlet-A      3.9601 eV  313.08 nm  f=0.0258  <S**2>=0.000
     252 -> 266       -0.12094
     253 -> 267        0.66067
     254 -> 266       -0.17241

 Excited State  55:      Singlet-A      3.9642 eV  312.76 nm  f=0.0975  <S**2>=0.000
     243 -> 256       -0.16825
     245 -> 256        0.42558
     248 -> 257        0.24226
     251 -> 257        0.31624
     252 -> 257        0.11373
     253 -> 264       -0.19446
     254 -> 265       -0.11729

 Excited State  56:      Singlet-A      3.9834 eV  311.26 nm  f=0.0083  <S**2>=0.000
     252 -> 259       -0.20431
     252 -> 262        0.64117
     252 -> 265        0.14775

 Excited State  57:      Singlet-A      3.9843 eV  311.18 nm  f=0.0012  <S**2>=0.000
     252 -> 263        0.69448

 Excited State  58:      Singlet-A      4.0535 eV  305.87 nm  f=0.0406  <S**2>=0.000
     252 -> 262       -0.17473
     252 -> 265        0.65128
     252 -> 267        0.11469

 Excited State  59:      Singlet-A      4.1362 eV  299.75 nm  f=0.0037  <S**2>=0.000
     244 -> 256        0.62017
     245 -> 257        0.10651
     252 -> 264       -0.18141
     254 -> 268       -0.19529

 Excited State  60:      Singlet-A      4.1573 eV  298.23 nm  f=0.0135  <S**2>=0.000
     252 -> 264       -0.44131
     252 -> 266        0.52634

 Excited State  61:      Singlet-A      4.1580 eV  298.19 nm  f=0.0125  <S**2>=0.000
     244 -> 256        0.16374
     252 -> 264        0.50927
     252 -> 266        0.41738
     254 -> 268       -0.13328

 Excited State  62:      Singlet-A      4.1855 eV  296.22 nm  f=0.0005  <S**2>=0.000
     252 -> 265       -0.12919
     252 -> 267        0.67132

 Excited State  63:      Singlet-A      4.1964 eV  295.45 nm  f=0.1590  <S**2>=0.000
     245 -> 257        0.15301
     247 -> 257        0.15858
     254 -> 268        0.46449
     255 -> 270       -0.23878
     255 -> 271        0.34546
     255 -> 273        0.17049

 Excited State  64:      Singlet-A      4.2150 eV  294.15 nm  f=0.0521  <S**2>=0.000
     239 -> 256       -0.24336
     243 -> 256        0.31226
     245 -> 256        0.13098
     249 -> 269        0.17238
     249 -> 277        0.10815
     252 -> 267        0.10490
     253 -> 269        0.41560
     253 -> 277        0.22580
     255 -> 269        0.12109

 Excited State  65:      Singlet-A      4.2545 eV  291.42 nm  f=0.0103  <S**2>=0.000
     244 -> 256        0.17171
     252 -> 266        0.10163
     254 -> 268        0.42229
     255 -> 270        0.41252
     255 -> 271       -0.24735
     255 -> 273       -0.14621

 Excited State  66:      Singlet-A      4.2785 eV  289.79 nm  f=0.0079  <S**2>=0.000
     254 -> 268       -0.13122
     255 -> 270        0.49208
     255 -> 271        0.45261

 Excited State  67:      Singlet-A      4.3030 eV  288.13 nm  f=0.0002  <S**2>=0.000
     251 -> 258        0.64055
     252 -> 269       -0.11538
     254 -> 269        0.17140

 Excited State  68:      Singlet-A      4.3101 eV  287.66 nm  f=0.0595  <S**2>=0.000
     239 -> 256       -0.19657
     243 -> 256        0.48442
     249 -> 269       -0.10989
     253 -> 269       -0.32663
     253 -> 277       -0.16801
     255 -> 269       -0.10041
     255 -> 272        0.13064

 Excited State  69:      Singlet-A      4.3115 eV  287.57 nm  f=0.0021  <S**2>=0.000
     251 -> 258       -0.25222
     251 -> 269        0.18014
     251 -> 277        0.10425
     252 -> 269       -0.26744
     252 -> 277       -0.16082
     254 -> 269        0.45748
     254 -> 277        0.18391

 Excited State  70:      Singlet-A      4.3227 eV  286.82 nm  f=0.0006  <S**2>=0.000
     255 -> 270        0.14601
     255 -> 271       -0.22543
     255 -> 273        0.61921

 Excited State  71:      Singlet-A      4.3560 eV  284.63 nm  f=0.0171  <S**2>=0.000
     250 -> 258        0.53166
     250 -> 269        0.10613
     253 -> 268        0.39220
     255 -> 272        0.16628

 Excited State  72:      Singlet-A      4.3614 eV  284.27 nm  f=0.0244  <S**2>=0.000
     250 -> 258        0.44355
     253 -> 268       -0.39700
     255 -> 272       -0.33679

 Excited State  73:      Singlet-A      4.3673 eV  283.89 nm  f=0.0001  <S**2>=0.000
     250 -> 258        0.10902
     253 -> 268       -0.36585
     255 -> 272        0.55039
     255 -> 277        0.11282

 Excited State  74:      Singlet-A      4.3739 eV  283.47 nm  f=0.0002  <S**2>=0.000
     251 -> 259       -0.42866
     251 -> 260        0.54131

 Excited State  75:      Singlet-A      4.3770 eV  283.27 nm  f=0.0004  <S**2>=0.000
     247 -> 257        0.11211
     255 -> 274        0.67274

 The electronic state is 1-A.
 Alpha  occ. eigenvalues --  -88.81780 -88.81779 -24.70243 -24.69923 -24.69923
 Alpha  occ. eigenvalues --  -24.69616 -24.69590 -24.69296 -24.69295 -24.69292
 Alpha  occ. eigenvalues --  -24.69292 -24.68407 -24.68359 -24.68134 -24.68133
 Alpha  occ. eigenvalues --  -24.68122 -24.68122 -19.03296 -14.29245 -14.29245
 Alpha  occ. eigenvalues --  -14.28954 -14.28953 -10.26418 -10.26112 -10.26112
 Alpha  occ. eigenvalues --  -10.25690 -10.25675 -10.25395 -10.25395 -10.25392
 Alpha  occ. eigenvalues --  -10.25392 -10.25370 -10.25355 -10.25151 -10.25151
 Alpha  occ. eigenvalues --  -10.25147 -10.25147 -10.18153 -10.18001 -10.17976
 Alpha  occ. eigenvalues --  -10.17975 -10.15987 -10.15986 -10.15500 -10.15498
 Alpha  occ. eigenvalues --  -10.14866 -10.14866 -10.14702 -10.14701 -10.14440
 Alpha  occ. eigenvalues --  -10.14440 -10.14101 -10.14099 -10.13921 -10.13851
 Alpha  occ. eigenvalues --  -10.13851 -10.12501 -10.12501 -10.12370 -10.12370
 Alpha  occ. eigenvalues --  -10.12268 -10.12268 -10.11760 -10.11760 -10.10469
 Alpha  occ. eigenvalues --  -10.10468 -10.10393 -10.10393  -7.89067  -7.89067
 Alpha  occ. eigenvalues --   -5.85416  -5.85416  -5.85053  -5.85053  -5.84712
 Alpha  occ. eigenvalues --   -5.84712  -3.86062  -2.08731  -2.08659  -2.04397
 Alpha  occ. eigenvalues --   -1.22242  -1.21933  -1.21933  -1.21184  -1.20894
 Alpha  occ. eigenvalues --   -1.20894  -1.20615  -1.20325  -1.20325  -1.19487
 Alpha  occ. eigenvalues --   -1.19425  -1.19227  -1.19227  -1.19166  -1.19166
 Alpha  occ. eigenvalues --   -0.93608  -0.90330  -0.89349  -0.88801  -0.88455
 Alpha  occ. eigenvalues --   -0.85698  -0.85474  -0.85457  -0.80285  -0.80282
 Alpha  occ. eigenvalues --   -0.77981  -0.77022  -0.76458  -0.73367  -0.73105
 Alpha  occ. eigenvalues --   -0.73105  -0.71986  -0.71482  -0.71468  -0.70945
 Alpha  occ. eigenvalues --   -0.70819  -0.70286  -0.69765  -0.66083  -0.66004
 Alpha  occ. eigenvalues --   -0.65506  -0.65470  -0.63938  -0.63467  -0.62613
 Alpha  occ. eigenvalues --   -0.62464  -0.61643  -0.61390  -0.61390  -0.60694
 Alpha  occ. eigenvalues --   -0.58452  -0.57984  -0.55146  -0.54819  -0.54767
 Alpha  occ. eigenvalues --   -0.54335  -0.54105  -0.54101  -0.53738  -0.53579
 Alpha  occ. eigenvalues --   -0.53186  -0.52893  -0.52317  -0.51553  -0.50868
 Alpha  occ. eigenvalues --   -0.50136  -0.50125  -0.49846  -0.49846  -0.49809
 Alpha  occ. eigenvalues --   -0.49675  -0.49419  -0.49197  -0.48319  -0.48260
 Alpha  occ. eigenvalues --   -0.47877  -0.47824  -0.47805  -0.47648  -0.47429
 Alpha  occ. eigenvalues --   -0.46982  -0.46921  -0.46718  -0.46717  -0.46241
 Alpha  occ. eigenvalues --   -0.44954  -0.44655  -0.44654  -0.44469  -0.44200
 Alpha  occ. eigenvalues --   -0.44130  -0.44028  -0.43549  -0.43473  -0.43190
 Alpha  occ. eigenvalues --   -0.41962  -0.41928  -0.41660  -0.41655  -0.41647
 Alpha  occ. eigenvalues --   -0.41647  -0.40420  -0.40304  -0.39882  -0.39714
 Alpha  occ. eigenvalues --   -0.39575  -0.39569  -0.39568  -0.39364  -0.39142
 Alpha  occ. eigenvalues --   -0.38234  -0.37994  -0.37954  -0.36880  -0.36632
 Alpha  occ. eigenvalues --   -0.36612  -0.36440  -0.35970  -0.35714  -0.35658
 Alpha  occ. eigenvalues --   -0.35305  -0.35197  -0.34938  -0.34432  -0.34282
 Alpha  occ. eigenvalues --   -0.34087  -0.34020  -0.33816  -0.33787  -0.33683
 Alpha  occ. eigenvalues --   -0.33182  -0.33003  -0.32656  -0.32463  -0.32206
 Alpha  occ. eigenvalues --   -0.31573  -0.31562  -0.30954  -0.30847  -0.30766
 Alpha  occ. eigenvalues --   -0.30503  -0.30282  -0.30154  -0.29865  -0.29778
 Alpha  occ. eigenvalues --   -0.28876  -0.28496  -0.26429  -0.26419  -0.25663
 Alpha  occ. eigenvalues --   -0.25529  -0.24405  -0.22661  -0.22561  -0.22099
 Alpha  occ. eigenvalues --   -0.21830  -0.21784  -0.21690  -0.21383  -0.21213
 Alpha  occ. eigenvalues --   -0.20952  -0.20936  -0.20096  -0.19311  -0.17967
 Alpha  occ. eigenvalues --   -0.17711  -0.17541  -0.16746  -0.16291  -0.16039
 Alpha  occ. eigenvalues --   -0.15704  -0.13848  -0.12819  -0.12010  -0.10285
 Alpha virt. eigenvalues --   -0.02013   0.00070   0.01720   0.01883   0.02064
 Alpha virt. eigenvalues --    0.02083   0.02270   0.02279   0.02879   0.02923
 Alpha virt. eigenvalues --    0.03128   0.03274   0.05047   0.06514   0.06719

 Mulliken charges:
               1
     1  C   -0.188195
     2  C    0.266380
     3  C   -0.039387
     4  C   -0.011459
     5  C    0.050988
     6  C    0.994636
     7  C   -0.188398
     8  C    0.266313
     9  C   -0.121368
    10  C    0.050772
    11  C    0.105693
    12  C   -0.011410
    13  H    0.121289
    14  H    0.114361
    15  H    0.117046
    16  N   -0.002935
    17  N   -0.002997
    18  N   -0.036218
    19  N   -0.036265
    20  C   -0.121316
    21  H    0.114360
    22  C    0.105649
    23  H    0.121290
    24  C    0.994682
    25  C   -0.039460
    26  H    0.117047
    27  C   -0.443965
    28  C   -0.044657
    29  C   -0.044619
    30  C   -0.040958
    31  C   -0.721018
    32  C    0.219336
    33  C    0.172236
    34  C    0.259215
    35  C    0.308581
    36  C    0.513828
    37  C   -0.582810
    38  C    0.043816
    39  C    0.028287
    40  C    0.411403
    41  C    0.375354
    42  C    0.446013
    43  C   -0.720916
    44  C    0.219201
    45  C    0.172132
    46  C    0.259235
    47  C    0.308730
    48  C    0.513724
    49  C   -0.671253
    50  C   -0.318081
    51  H    0.164975
    52  C   -0.671699
    53  C   -0.318207
    54  H    0.164983
    55  F   -0.277792
    56  F   -0.351084
    57  F   -0.351947
    58  F   -0.351466
    59  F   -0.275762
    60  F   -0.278237
    61  F   -0.355324
    62  F   -0.350850
    63  F   -0.354221
    64  F   -0.278659
    65  F   -0.275752
    66  F   -0.351470
    67  F   -0.351947
    68  F   -0.351082
    69  F   -0.277777
    70  H    0.120504
    71  H    0.120503
    72  O   -0.561289
    73  C    0.329103
    74  C    0.328448
    75  C   -0.116869
    76  H    0.142331
    77  S    0.020370
    78  S    0.020332
    79  C   -0.116765
    80  H    0.142331
    81  Pt   0.660408
 Sum of Mulliken charges =  -1.00000

 Dipole moment (field-independent basis, Debye):
    X=              0.0003    Y=              3.9560    Z=              0.8459  Tot=              4.0454
 Quadrupole moment (field-independent basis, Debye-Ang):
   XX=           -500.5514   YY=           -486.6905   ZZ=           -452.5856
   XY=              0.0020   XZ=             -0.0020   YZ=             -1.6600

 Normal termination of Gaussian 16 at Sat Sep  3 22:51:30 2022.
