 Gaussian 16, Revision C.01,
 Gaussian 16:  ES64L-G16RevC.01  3-Jul-2019

 ----------------------------------------------------------------
 # td=(nstates=75) b3lyp/genecp geom=connectivity scf=maxcyc=1000
 ----------------------------------------------------------------

 -----
 title
 -----
 Symbolic Z-matrix:
 Charge =  0 Multiplicity = 1

                         Standard orientation:
 ---------------------------------------------------------------------
 Center     Atomic      Atomic             Coordinates (Angstroms)
 Number     Number       Type             X           Y           Z
 ---------------------------------------------------------------------
      1          6           0       -1.981437   -2.784835   -0.156551
      2          6           0        2.182795    1.743593    0.025024
      3          6           0        4.210140    0.755084    0.072449
      4          6           0        3.164645   -0.240701    0.033437
      5          6           0        2.366494   -2.588846    0.011704
      6          6           0        1.363273   -4.610125   -0.004646
      7          6           0        0.390026   -3.557669   -0.034276
      8          6           0       -0.162959    2.540139    0.016030
      9          6           0       -1.158429    3.589310    0.039095
     10          6           0       -2.939292   -0.789999   -0.073140
     11          6           0       -3.987579   -1.756551   -0.162479
     12          6           0       -2.148844    1.562952    0.010848
     13          1           0       -5.043208   -1.536664   -0.213802
     14          1           0       -0.943781    4.647273    0.048195
     15          1           0        5.267807    0.541701    0.110506
     16          7           0        1.016362   -2.335522   -0.022816
     17          7           0       -1.724899   -1.429807   -0.078728
     18          7           0        1.937788    0.392428    0.008012
     19          7           0       -0.790602    1.319087   -0.003633
     20          6           0        3.609402    1.970659    0.065951
     21          1           0        4.081908    2.940765    0.098833
     22          6           0        2.586498   -4.011474    0.018195
     23          1           0        3.554003   -4.490434    0.031626
     24          6           0       -3.413581   -2.999464   -0.236507
     25          6           0       -2.374060    2.990882    0.044999
     26          1           0       -3.343196    3.465815    0.071156
     27          6           0       -0.992066   -3.781065   -0.093899
     28          6           0       -3.151254    0.601408   -0.015532
     29          6           0        3.378874   -1.615948    0.035815
     30          6           0        1.217970    2.756639    0.023632
     31          6           0        4.793791   -2.098798    0.067366
     32          6           0        5.607600   -2.047395   -1.068802
     33          6           0        5.357668   -2.626210    1.233547
     34          6           0        6.926483   -2.496280   -1.051264
     35          6           0        6.672368   -3.085231    1.273925
     36          6           0        7.458720   -3.018073    0.125712
     37          6           0        1.699861    4.171834    0.038877
     38          6           0        2.245192    4.768292   -1.102950
     39          6           0        1.627729    4.956668    1.194534
     40          6           0        2.701977    6.084508   -1.101196
     41          6           0        2.072390    6.276754    1.219068
     42          6           0        2.612992    6.840732    0.065509
     43          6           0       -4.569376    1.074474    0.009790
     44          6           0       -5.167028    1.657645   -1.112395
     45          6           0       -5.358182    0.947081    1.158107
     46          6           0       -6.487692    2.101334   -1.097608
     47          6           0       -6.682256    1.378377    1.195132
     48          6           0       -7.247209    1.959049    0.061585
     49          6           0       -4.157629   -4.256253   -0.382200
     50          6           0       -5.035370   -6.267289   -1.218795
     51          1           0       -3.365896   -5.166129   -2.184158
     52          9           0        4.628292   -2.701559    2.353913
     53          9           0        7.184244   -3.583279    2.404473
     54          9           0        8.720493   -3.452649    0.153550
     55          9           0        7.680458   -2.433881   -2.153933
     56          9           0        5.124719   -1.554050   -2.216223
     57          9           0        2.342657    4.069030   -2.240773
     58          9           0        3.218517    6.626498   -2.209202
     59          9           0        3.044801    8.103715    0.078091
     60          9           0        1.989124    7.001620    2.339850
     61          9           0        1.115492    4.443339    2.320616
     62          9           0       -4.465689    1.805334   -2.243735
     63          9           0       -7.030610    2.655727   -2.186689
     64          9           0       -8.514099    2.378316    0.086244
     65          9           0       -7.410247    1.243870    2.308651
     66          9           0       -4.843773    0.394574    2.264165
     67          1           0       -5.118059   -7.108013   -1.897656
     68          6           0       -4.073956   -5.224097   -1.364595
     69          6           0       -5.852118   -6.086260   -0.136265
     70          1           0       -6.657780   -6.720399    0.207439
     71         16           0       -5.453581   -4.643486    0.733626
     72          8           0       -1.321846   -5.094742   -0.080995
     73          1           0       -2.287407   -5.210006   -0.100463
     74          1           0        1.127535   -5.663123   -0.009008
     75         78           0        0.110138   -0.512166   -0.023935
 ---------------------------------------------------------------------

 SCF Done:  E(RB3LYP) =  -3916.34949645     A.U. after   24 cycles

 Excitation energies and oscillator strengths:

 Excited State   1:      Singlet-A      2.3647 eV  524.31 nm  f=0.0497  <S**2>=0.000
     233 -> 236       -0.37224
     234 -> 235        0.59535
 This state for optimization and/or second-order correction.
 Total Energy, E(TD-HF/TD-DFT) =  -3916.26259441
 Copying the excited state density for this state as the 1-particle RhoCI density.

 Excited State   2:      Singlet-A      2.4336 eV  509.47 nm  f=0.0010  <S**2>=0.000
     233 -> 235        0.50632
     234 -> 236        0.48882

 Excited State   3:      Singlet-A      2.5943 eV  477.90 nm  f=0.0035  <S**2>=0.000
     231 -> 236        0.14299
     232 -> 235        0.68016

 Excited State   4:      Singlet-A      2.7073 eV  457.96 nm  f=0.0085  <S**2>=0.000
     231 -> 235        0.58789
     231 -> 236        0.12585
     232 -> 236        0.34665

 Excited State   5:      Singlet-A      2.8606 eV  433.42 nm  f=0.0008  <S**2>=0.000
     231 -> 235       -0.10127
     231 -> 236        0.67134
     232 -> 235       -0.12881

 Excited State   6:      Singlet-A      3.0357 eV  408.41 nm  f=0.0023  <S**2>=0.000
     230 -> 235        0.70011

 Excited State   7:      Singlet-A      3.0869 eV  401.64 nm  f=0.0310  <S**2>=0.000
     231 -> 235       -0.36169
     232 -> 236        0.58334
     233 -> 236       -0.12611

 Excited State   8:      Singlet-A      3.1561 eV  392.84 nm  f=0.9672  <S**2>=0.000
     229 -> 235       -0.12683
     229 -> 236        0.10143
     232 -> 236        0.13137
     233 -> 235       -0.24925
     233 -> 236        0.46786
     234 -> 235        0.28807
     234 -> 236        0.26749

 Excited State   9:      Singlet-A      3.2264 eV  384.28 nm  f=0.8543  <S**2>=0.000
     233 -> 235       -0.40293
     233 -> 236       -0.30336
     234 -> 235       -0.19441
     234 -> 236        0.40958

 Excited State  10:      Singlet-A      3.2545 eV  380.96 nm  f=0.0037  <S**2>=0.000
     230 -> 236        0.70020

 Excited State  11:      Singlet-A      3.4888 eV  355.38 nm  f=0.0555  <S**2>=0.000
     229 -> 235        0.67683

 Excited State  12:      Singlet-A      3.6793 eV  336.98 nm  f=0.0022  <S**2>=0.000
     229 -> 236        0.37326
     234 -> 237        0.57922

 Excited State  13:      Singlet-A      3.7067 eV  334.49 nm  f=0.0997  <S**2>=0.000
     229 -> 236        0.57162
     234 -> 237       -0.36642

 Excited State  14:      Singlet-A      3.9102 eV  317.08 nm  f=0.0958  <S**2>=0.000
     224 -> 235       -0.16640
     225 -> 235       -0.14344
     226 -> 235       -0.30613
     228 -> 235        0.31737
     232 -> 237       -0.10262
     233 -> 237        0.45178

 Excited State  15:      Singlet-A      3.9178 eV  316.46 nm  f=0.0097  <S**2>=0.000
     223 -> 235       -0.10298
     225 -> 235        0.17631
     226 -> 235        0.21279
     228 -> 235       -0.32438
     233 -> 237        0.49197
     234 -> 238       -0.11585

 Excited State  16:      Singlet-A      3.9768 eV  311.77 nm  f=0.0071  <S**2>=0.000
     225 -> 235        0.12385
     226 -> 235        0.28203
     227 -> 235        0.50004
     228 -> 235        0.34050
     234 -> 238       -0.14468

 Excited State  17:      Singlet-A      3.9893 eV  310.79 nm  f=0.0102  <S**2>=0.000
     227 -> 235        0.13077
     234 -> 238        0.65578

 Excited State  18:      Singlet-A      4.0116 eV  309.07 nm  f=0.0051  <S**2>=0.000
     225 -> 235       -0.27167
     226 -> 235        0.15421
     228 -> 235       -0.10968
     234 -> 239        0.59994

 Excited State  19:      Singlet-A      4.0143 eV  308.86 nm  f=0.0006  <S**2>=0.000
     224 -> 235        0.10383
     225 -> 235        0.49207
     226 -> 235       -0.34593
     234 -> 239        0.31863

 Excited State  20:      Singlet-A      4.0320 eV  307.50 nm  f=0.0019  <S**2>=0.000
     225 -> 235       -0.13049
     226 -> 235       -0.26948
     227 -> 235        0.45927
     228 -> 235       -0.38671
     234 -> 239       -0.12501
     234 -> 240       -0.14813

 Excited State  21:      Singlet-A      4.0542 eV  305.81 nm  f=0.0127  <S**2>=0.000
     226 -> 236       -0.10729
     231 -> 237       -0.15137
     232 -> 237        0.13706
     234 -> 240        0.61186

 Excited State  22:      Singlet-A      4.0764 eV  304.15 nm  f=0.0894  <S**2>=0.000
     223 -> 235       -0.15453
     224 -> 235       -0.14492
     224 -> 236        0.13438
     225 -> 235       -0.14254
     225 -> 236        0.14724
     226 -> 235       -0.12173
     226 -> 236        0.26489
     228 -> 236       -0.24813
     231 -> 237        0.35370
     232 -> 237        0.25827
     234 -> 240        0.14557

 Excited State  23:      Singlet-A      4.1051 eV  302.03 nm  f=0.0495  <S**2>=0.000
     223 -> 235        0.18863
     224 -> 235        0.57782
     225 -> 235       -0.21530
     226 -> 235       -0.12009
     228 -> 236       -0.10649

 Excited State  24:      Singlet-A      4.1236 eV  300.67 nm  f=0.1256  <S**2>=0.000
     224 -> 235        0.11203
     231 -> 237       -0.13218
     232 -> 237        0.58836
     234 -> 240       -0.20055
     234 -> 241        0.11789

 Excited State  25:      Singlet-A      4.1438 eV  299.20 nm  f=0.0067  <S**2>=0.000
     222 -> 235        0.55127
     223 -> 235       -0.36758
     224 -> 235        0.12237
     228 -> 236        0.10797

 Excited State  26:      Singlet-A      4.1511 eV  298.68 nm  f=0.0234  <S**2>=0.000
     221 -> 235       -0.12370
     222 -> 235        0.40398
     223 -> 235        0.44501
     224 -> 235       -0.19810
     228 -> 236       -0.12223
     234 -> 241        0.10950

 Excited State  27:      Singlet-A      4.1749 eV  296.97 nm  f=0.0126  <S**2>=0.000
     223 -> 235        0.10074
     226 -> 236       -0.13021
     227 -> 236       -0.18160
     228 -> 236        0.41060
     231 -> 237        0.48730

 Excited State  28:      Singlet-A      4.1999 eV  295.21 nm  f=0.0017  <S**2>=0.000
     224 -> 236       -0.12703
     225 -> 236       -0.18505
     226 -> 236       -0.36793
     227 -> 236        0.45190
     228 -> 236       -0.20542
     231 -> 237        0.20319

 Excited State  29:      Singlet-A      4.2141 eV  294.21 nm  f=0.0009  <S**2>=0.000
     221 -> 235        0.50034
     233 -> 238       -0.31409
     234 -> 241        0.27289
     234 -> 242       -0.11261
     234 -> 248        0.13158

 Excited State  30:      Singlet-A      4.2194 eV  293.85 nm  f=0.0282  <S**2>=0.000
     223 -> 236       -0.14106
     233 -> 238        0.45542
     233 -> 239       -0.10517
     234 -> 241        0.37263
     234 -> 242       -0.16466
     234 -> 248        0.18791

 Excited State  31:      Singlet-A      4.2270 eV  293.32 nm  f=0.0079  <S**2>=0.000
     221 -> 235        0.42861
     223 -> 235        0.17883
     233 -> 238        0.38541
     234 -> 241       -0.21764
     234 -> 248       -0.13651

 Excited State  32:      Singlet-A      4.2602 eV  291.03 nm  f=0.0039  <S**2>=0.000
     233 -> 239        0.67507

 Excited State  33:      Singlet-A      4.2656 eV  290.66 nm  f=0.0000  <S**2>=0.000
     225 -> 236        0.10193
     226 -> 236        0.27087
     227 -> 236        0.48223
     228 -> 236        0.37399

 Excited State  34:      Singlet-A      4.2881 eV  289.14 nm  f=0.0026  <S**2>=0.000
     218 -> 235        0.27595
     220 -> 235       -0.22973
     223 -> 236       -0.13340
     224 -> 236       -0.17505
     225 -> 236        0.31505
     231 -> 248        0.10740
     232 -> 248        0.27476
     233 -> 240       -0.13306
     234 -> 241        0.14018
     234 -> 242        0.11363
     234 -> 248       -0.19874

 Excited State  35:      Singlet-A      4.2955 eV  288.64 nm  f=0.0075  <S**2>=0.000
     220 -> 235       -0.15671
     225 -> 236        0.41154
     226 -> 236       -0.15642
     232 -> 248       -0.10586
     233 -> 240        0.23194
     234 -> 241       -0.23948
     234 -> 242       -0.33690

 Excited State  36:      Singlet-A      4.3003 eV  288.31 nm  f=0.0071  <S**2>=0.000
     218 -> 235        0.13178
     220 -> 235        0.40800
     224 -> 236        0.27627
     225 -> 236        0.17187
     226 -> 236       -0.29403
     232 -> 248        0.13240
     233 -> 240        0.20806
     234 -> 241        0.11495

 Excited State  37:      Singlet-A      4.3031 eV  288.12 nm  f=0.0031  <S**2>=0.000
     218 -> 235       -0.25984
     220 -> 235       -0.12127
     225 -> 236        0.23820
     226 -> 236       -0.13218
     232 -> 248       -0.23949
     234 -> 242        0.47510

 Excited State  38:      Singlet-A      4.3046 eV  288.03 nm  f=0.0122  <S**2>=0.000
     219 -> 235        0.10044
     220 -> 235       -0.16638
     225 -> 236       -0.12846
     226 -> 236        0.14382
     233 -> 240        0.57761
     234 -> 241        0.15756
     234 -> 242        0.12943

 Excited State  39:      Singlet-A      4.3201 eV  287.00 nm  f=0.0106  <S**2>=0.000
     220 -> 235       -0.34254
     224 -> 236        0.54514
     225 -> 236       -0.11332

 Excited State  40:      Singlet-A      4.3335 eV  286.10 nm  f=0.0012  <S**2>=0.000
     234 -> 242       -0.12046
     234 -> 243        0.52845
     234 -> 244       -0.37234
     234 -> 245       -0.17885

 Excited State  41:      Singlet-A      4.3502 eV  285.01 nm  f=0.0021  <S**2>=0.000
     218 -> 235        0.20188
     223 -> 236        0.46082
     231 -> 248       -0.13665
     232 -> 248        0.11825
     234 -> 248        0.37403

 Excited State  42:      Singlet-A      4.3560 eV  284.63 nm  f=0.0055  <S**2>=0.000
     223 -> 236        0.10884
     234 -> 241        0.11764
     234 -> 243        0.36753
     234 -> 244        0.50353
     234 -> 245        0.12879
     234 -> 248       -0.11936

 Excited State  43:      Singlet-A      4.3642 eV  284.09 nm  f=0.0009  <S**2>=0.000
     218 -> 235       -0.10342
     218 -> 236        0.15613
     220 -> 235       -0.10568
     222 -> 236       -0.11956
     223 -> 236        0.26238
     231 -> 241        0.11232
     231 -> 248        0.45058
     233 -> 248        0.10327
     234 -> 243       -0.16545
     234 -> 244       -0.10275
     234 -> 245       -0.10733
     234 -> 247       -0.11346

 Excited State  44:      Singlet-A      4.3736 eV  283.48 nm  f=0.0012  <S**2>=0.000
     231 -> 248        0.25606
     234 -> 243        0.12629
     234 -> 245        0.33262
     234 -> 247        0.39982
     234 -> 248        0.25106

 Excited State  45:      Singlet-A      4.3802 eV  283.06 nm  f=0.0021  <S**2>=0.000
     222 -> 236       -0.11265
     223 -> 236        0.20262
     231 -> 248       -0.16240
     234 -> 241        0.12070
     234 -> 243       -0.10433
     234 -> 244       -0.18522
     234 -> 245        0.35828
     234 -> 246       -0.33354
     234 -> 248       -0.26460

 Excited State  46:      Singlet-A      4.3921 eV  282.29 nm  f=0.0100  <S**2>=0.000
     219 -> 235        0.11186
     222 -> 236       -0.11942
     223 -> 236        0.10404
     234 -> 245        0.10964
     234 -> 246        0.53863
     234 -> 247        0.26143
     234 -> 248       -0.19754

 Excited State  47:      Singlet-A      4.4093 eV  281.19 nm  f=0.0037  <S**2>=0.000
     234 -> 244        0.13072
     234 -> 245       -0.41796
     234 -> 246       -0.21425
     234 -> 247        0.47696

 Excited State  48:      Singlet-A      4.4267 eV  280.08 nm  f=0.0145  <S**2>=0.000
     219 -> 235       -0.31318
     221 -> 236        0.22338
     222 -> 236        0.50316
     223 -> 236        0.16667

 Excited State  49:      Singlet-A      4.4442 eV  278.98 nm  f=0.0398  <S**2>=0.000
     218 -> 235        0.16566
     219 -> 235       -0.36731
     222 -> 236       -0.17559
     233 -> 241        0.42949
     233 -> 242       -0.17727
     233 -> 248        0.13849
     234 -> 246        0.12267

 Excited State  50:      Singlet-A      4.4574 eV  278.15 nm  f=0.0115  <S**2>=0.000
     218 -> 235        0.45663
     219 -> 235        0.13037
     232 -> 238        0.16978
     232 -> 241       -0.12469
     232 -> 248       -0.40298
     233 -> 241       -0.10360

 Excited State  51:      Singlet-A      4.4799 eV  276.75 nm  f=0.0099  <S**2>=0.000
     219 -> 235       -0.30188
     220 -> 236       -0.13110
     222 -> 236       -0.23130
     230 -> 248        0.43631
     233 -> 241       -0.23823
     233 -> 248       -0.12411

 Excited State  52:      Singlet-A      4.4908 eV  276.08 nm  f=0.0253  <S**2>=0.000
     220 -> 236        0.19275
     221 -> 236        0.56827
     222 -> 236       -0.22843
     223 -> 236       -0.11930
     230 -> 248       -0.14208

 Excited State  53:      Singlet-A      4.5271 eV  273.87 nm  f=0.0010  <S**2>=0.000
     230 -> 248        0.10871
     233 -> 241        0.32727
     233 -> 242        0.56852
     233 -> 244       -0.12993

 Excited State  54:      Singlet-A      4.5339 eV  273.46 nm  f=0.0069  <S**2>=0.000
     220 -> 236        0.23779
     221 -> 236       -0.10614
     230 -> 248       -0.12015
     232 -> 238        0.57438
     232 -> 239       -0.13445
     232 -> 248        0.10733
     233 -> 242        0.11536

 Excited State  55:      Singlet-A      4.5468 eV  272.68 nm  f=0.0071  <S**2>=0.000
     217 -> 236        0.10731
     219 -> 235        0.23461
     220 -> 235        0.10311
     220 -> 236        0.16015
     221 -> 236        0.13880
     222 -> 236        0.11324
     230 -> 237       -0.19194
     230 -> 248        0.39586
     232 -> 238        0.10979
     233 -> 241        0.15065
     233 -> 242       -0.21826
     233 -> 248        0.15245

 Excited State  56:      Singlet-A      4.5524 eV  272.35 nm  f=0.0005  <S**2>=0.000
     220 -> 236        0.53944
     221 -> 236       -0.22546
     232 -> 238       -0.28408

 Excited State  57:      Singlet-A      4.5704 eV  271.28 nm  f=0.0001  <S**2>=0.000
     233 -> 242        0.12856
     233 -> 243       -0.44207
     233 -> 244        0.47132
     233 -> 245        0.16958

 Excited State  58:      Singlet-A      4.5735 eV  271.09 nm  f=0.0012  <S**2>=0.000
     220 -> 236        0.13847
     231 -> 238        0.25713
     231 -> 239        0.17838
     232 -> 239        0.56571
     232 -> 240        0.14048

 Excited State  59:      Singlet-A      4.5827 eV  270.55 nm  f=0.0098  <S**2>=0.000
     218 -> 236        0.13226
     231 -> 238        0.61312
     231 -> 239       -0.10929
     232 -> 239       -0.25188

 Excited State  60:      Singlet-A      4.5921 eV  270.00 nm  f=0.0000  <S**2>=0.000
     233 -> 243        0.50523
     233 -> 244        0.41075
     233 -> 245        0.17231
     233 -> 248       -0.10011

 Excited State  61:      Singlet-A      4.6043 eV  269.28 nm  f=0.0079  <S**2>=0.000
     230 -> 237        0.55410
     230 -> 241        0.10218
     230 -> 248        0.11209
     231 -> 239       -0.11887
     232 -> 240        0.30548
     233 -> 248        0.14382

 Excited State  62:      Singlet-A      4.6089 eV  269.01 nm  f=0.0296  <S**2>=0.000
     230 -> 237       -0.34939
     230 -> 248       -0.14544
     231 -> 239       -0.15696
     232 -> 240        0.46459
     232 -> 248       -0.10056
     233 -> 248        0.18012

 Excited State  63:      Singlet-A      4.6130 eV  268.77 nm  f=0.0072  <S**2>=0.000
     231 -> 239        0.60548
     231 -> 240        0.11826
     232 -> 239       -0.22591
     233 -> 248        0.16416

 Excited State  64:      Singlet-A      4.6192 eV  268.41 nm  f=0.0107  <S**2>=0.000
     218 -> 236        0.38062
     231 -> 240       -0.13081
     232 -> 240        0.14900
     233 -> 241        0.10888
     233 -> 245       -0.24601
     233 -> 247       -0.25320
     233 -> 248       -0.35521

 Excited State  65:      Singlet-A      4.6228 eV  268.20 nm  f=0.0050  <S**2>=0.000
     218 -> 236        0.22102
     232 -> 240        0.13827
     233 -> 244       -0.19071
     233 -> 245        0.48180
     233 -> 246       -0.22296
     233 -> 247        0.22429
     233 -> 248       -0.16855

 Excited State  66:      Singlet-A      4.6314 eV  267.70 nm  f=0.0004  <S**2>=0.000
     218 -> 236        0.43781
     231 -> 240       -0.16384
     231 -> 248       -0.17835
     232 -> 240       -0.19400
     233 -> 241       -0.11572
     233 -> 246        0.18663
     233 -> 247        0.15427
     233 -> 248        0.30070

 Excited State  67:      Singlet-A      4.6396 eV  267.23 nm  f=0.0003  <S**2>=0.000
     233 -> 245        0.12241
     233 -> 246        0.59985
     233 -> 247        0.18328
     233 -> 248       -0.18968

 Excited State  68:      Singlet-A      4.6530 eV  266.46 nm  f=0.0003  <S**2>=0.000
     233 -> 244        0.14766
     233 -> 245       -0.33736
     233 -> 246       -0.16317
     233 -> 247        0.55189
     233 -> 248       -0.12526

 Excited State  69:      Singlet-A      4.6551 eV  266.34 nm  f=0.0036  <S**2>=0.000
     218 -> 236        0.16429
     219 -> 236        0.13121
     231 -> 239       -0.14529
     231 -> 240        0.59082
     231 -> 248       -0.13782
     232 -> 241       -0.15207

 Excited State  70:      Singlet-A      4.6831 eV  264.75 nm  f=0.0094  <S**2>=0.000
     217 -> 235       -0.25582
     219 -> 236        0.54692
     231 -> 240       -0.20059
     232 -> 241       -0.16196

 Excited State  71:      Singlet-A      4.7254 eV  262.38 nm  f=0.0366  <S**2>=0.000
     217 -> 235       -0.15003
     219 -> 236        0.20208
     231 -> 240        0.12450
     231 -> 241       -0.23957
     231 -> 242        0.10496
     232 -> 241        0.48608
     232 -> 242       -0.19764
     232 -> 248       -0.16169

 Excited State  72:      Singlet-A      4.8148 eV  257.51 nm  f=0.0574  <S**2>=0.000
     229 -> 237       -0.11514
     231 -> 241        0.53678
     231 -> 242       -0.18406
     231 -> 248       -0.17422
     232 -> 241        0.29745

 Excited State  73:      Singlet-A      4.8331 eV  256.53 nm  f=0.0004  <S**2>=0.000
     231 -> 241       -0.12511
     232 -> 241        0.23238
     232 -> 242        0.62968

 Excited State  74:      Singlet-A      4.8724 eV  254.46 nm  f=0.0132  <S**2>=0.000
     216 -> 235        0.31905
     217 -> 235       -0.21298
     229 -> 237        0.49500
     231 -> 241        0.11580
     232 -> 244       -0.15601

 Excited State  75:      Singlet-A      4.8736 eV  254.40 nm  f=0.0006  <S**2>=0.000
     231 -> 241       -0.18187
     231 -> 242       -0.38926
     232 -> 242       -0.13455
     232 -> 243        0.40794
     232 -> 244       -0.29676
     232 -> 245       -0.11246

 The electronic state is 1-A.
 Alpha  occ. eigenvalues --  -88.92593 -24.76746 -24.76580 -24.76576 -24.76316
 Alpha  occ. eigenvalues --  -24.76309 -24.76150 -24.76142 -24.76140 -24.76127
 Alpha  occ. eigenvalues --  -24.75920 -24.75909 -24.75745 -24.75730 -24.75722
 Alpha  occ. eigenvalues --  -24.75704 -19.20925 -14.39588 -14.39196 -14.38991
 Alpha  occ. eigenvalues --  -14.38925 -10.33332 -10.33161 -10.33155 -10.32762
 Alpha  occ. eigenvalues --  -10.32752 -10.32699 -10.32692 -10.32590 -10.32583
 Alpha  occ. eigenvalues --  -10.32571 -10.32560 -10.32523 -10.32520 -10.32517
 Alpha  occ. eigenvalues --  -10.32506 -10.29455 -10.25827 -10.25650 -10.25626
 Alpha  occ. eigenvalues --  -10.25608 -10.25525 -10.25422 -10.25392 -10.25343
 Alpha  occ. eigenvalues --  -10.25299 -10.25182 -10.24986 -10.24385 -10.24319
 Alpha  occ. eigenvalues --  -10.24268 -10.24127 -10.23924 -10.23428 -10.22486
 Alpha  occ. eigenvalues --  -10.22119 -10.21393 -10.21377 -10.21293 -10.21274
 Alpha  occ. eigenvalues --  -10.21164 -10.20701 -10.20619  -7.99826  -5.96177
 Alpha  occ. eigenvalues --   -5.95799  -5.95486  -3.96237  -2.18872  -2.18855
 Alpha  occ. eigenvalues --   -2.14549  -1.29162  -1.28991  -1.28985  -1.28355
 Alpha  occ. eigenvalues --   -1.28178  -1.28172  -1.27822  -1.27644  -1.27638
 Alpha  occ. eigenvalues --   -1.26971  -1.26793  -1.26786  -1.26751  -1.26576
 Alpha  occ. eigenvalues --   -1.26569  -1.10002  -1.00361  -0.99404  -0.99164
 Alpha  occ. eigenvalues --   -0.98524  -0.93085  -0.92923  -0.92833  -0.91409
 Alpha  occ. eigenvalues --   -0.86831  -0.85567  -0.84737  -0.82418  -0.81419
 Alpha  occ. eigenvalues --   -0.80577  -0.80409  -0.80402  -0.80312  -0.80192
 Alpha  occ. eigenvalues --   -0.79872  -0.79183  -0.78824  -0.76787  -0.76386
 Alpha  occ. eigenvalues --   -0.76014  -0.74480  -0.71142  -0.70489  -0.69207
 Alpha  occ. eigenvalues --   -0.68869  -0.68714  -0.68698  -0.67985  -0.67692
 Alpha  occ. eigenvalues --   -0.63804  -0.63362  -0.62594  -0.62245  -0.62031
 Alpha  occ. eigenvalues --   -0.61685  -0.61595  -0.61526  -0.61301  -0.61225
 Alpha  occ. eigenvalues --   -0.60832  -0.60287  -0.59830  -0.59342  -0.58945
 Alpha  occ. eigenvalues --   -0.58482  -0.58232  -0.57404  -0.57236  -0.57085
 Alpha  occ. eigenvalues --   -0.57061  -0.57052  -0.56585  -0.56469  -0.56099
 Alpha  occ. eigenvalues --   -0.55682  -0.55220  -0.55033  -0.54949  -0.54765
 Alpha  occ. eigenvalues --   -0.54542  -0.54502  -0.54341  -0.54200  -0.53749
 Alpha  occ. eigenvalues --   -0.52107  -0.51974  -0.51910  -0.51822  -0.51008
 Alpha  occ. eigenvalues --   -0.50916  -0.50733  -0.50361  -0.49227  -0.49059
 Alpha  occ. eigenvalues --   -0.49037  -0.49007  -0.48740  -0.48696  -0.48681
 Alpha  occ. eigenvalues --   -0.47586  -0.47122  -0.47012  -0.46686  -0.46570
 Alpha  occ. eigenvalues --   -0.46501  -0.46493  -0.46366  -0.46326  -0.46190
 Alpha  occ. eigenvalues --   -0.45508  -0.45257  -0.45168  -0.45066  -0.44940
 Alpha  occ. eigenvalues --   -0.44165  -0.43997  -0.43968  -0.43823  -0.43806
 Alpha  occ. eigenvalues --   -0.43652  -0.43073  -0.42865  -0.42433  -0.42064
 Alpha  occ. eigenvalues --   -0.41769  -0.41642  -0.41422  -0.41308  -0.41148
 Alpha  occ. eigenvalues --   -0.41025  -0.40943  -0.40877  -0.40694  -0.40406
 Alpha  occ. eigenvalues --   -0.39647  -0.39075  -0.38094  -0.37911  -0.37516
 Alpha  occ. eigenvalues --   -0.37222  -0.35880  -0.35649  -0.34368  -0.32569
 Alpha  occ. eigenvalues --   -0.32278  -0.31421  -0.31061  -0.29872  -0.29659
 Alpha  occ. eigenvalues --   -0.29180  -0.28908  -0.28747  -0.28446  -0.28337
 Alpha  occ. eigenvalues --   -0.28269  -0.28141  -0.28084  -0.26390  -0.26032
 Alpha  occ. eigenvalues --   -0.24087  -0.23892  -0.22844  -0.22013
 Alpha virt. eigenvalues --   -0.11685  -0.10896  -0.06830  -0.05457  -0.05347
 Alpha virt. eigenvalues --   -0.05213  -0.04641  -0.04557  -0.04412  -0.04280
 Alpha virt. eigenvalues --   -0.04268  -0.04098  -0.04086  -0.02883  -0.01353

 Mulliken charges:
               1
     1  C    0.052278
     2  C    0.318897
     3  C   -0.025217
     4  C    0.137484
     5  C    0.173121
     6  C    0.019962
     7  C   -0.185214
     8  C    0.229521
     9  C   -0.073701
    10  C    0.187674
    11  C   -0.207516
    12  C    0.199492
    13  H    0.141233
    14  H    0.134549
    15  H    0.133915
    16  N   -0.108826
    17  N   -0.006510
    18  N   -0.085633
    19  N   -0.075061
    20  C    0.082781
    21  H    0.134303
    22  C    0.056912
    23  H    0.131038
    24  C    0.298378
    25  C   -0.037441
    26  H    0.134350
    27  C    0.200086
    28  C   -0.053240
    29  C   -0.151477
    30  C   -0.130226
    31  C   -0.514395
    32  C    0.180253
    33  C    0.161998
    34  C    0.250176
    35  C    0.239975
    36  C    0.567260
    37  C   -0.450962
    38  C    0.066883
    39  C    0.052037
    40  C    0.364712
    41  C    0.380174
    42  C    0.469607
    43  C   -0.613342
    44  C    0.215052
    45  C    0.206173
    46  C    0.212113
    47  C    0.240294
    48  C    0.562091
    49  C   -0.740838
    50  C   -0.135807
    51  H    0.153821
    52  F   -0.284326
    53  F   -0.338851
    54  F   -0.338984
    55  F   -0.338516
    56  F   -0.285512
    57  F   -0.281330
    58  F   -0.342932
    59  F   -0.338123
    60  F   -0.342571
    61  F   -0.281727
    62  F   -0.285469
    63  F   -0.336962
    64  F   -0.338289
    65  F   -0.336733
    66  F   -0.281185
    67  H    0.146094
    68  C    0.095753
    69  C   -0.145211
    70  H    0.169699
    71  S    0.226690
    72  O   -0.514415
    73  H    0.377426
    74  H    0.155000
    75  Pt   0.747290
 Sum of Mulliken charges =   0.00000

 Dipole moment (field-independent basis, Debye):
    X=             -2.8966    Y=             -3.6450    Z=             -0.6973  Tot=              4.7077
 Quadrupole moment (field-independent basis, Debye-Ang):
   XX=           -379.3224   YY=           -357.1835   ZZ=           -400.8673
   XY=             24.7059   XZ=              5.6497   YZ=              9.5556

 Normal termination of Gaussian 16 at Sat Sep  3 21:18:10 2022.
