 Gaussian 16, Revision C.01,
 Gaussian 16:  ES64L-G16RevC.01  3-Jul-2019

 ----------------------------------------------------------------
 # td=(nstates=75) b3lyp/genecp geom=connectivity scf=maxcyc=1000
 ----------------------------------------------------------------

 -----
 title
 -----
 Symbolic Z-matrix:
 Charge = -1 Multiplicity = 1

                         Standard orientation:
 ---------------------------------------------------------------------
 Center     Atomic      Atomic             Coordinates (Angstroms)
 Number     Number       Type             X           Y           Z
 ---------------------------------------------------------------------
      1          6           0       -1.988216   -2.818918   -0.347613
      2          6           0        2.197996    1.729492   -0.051814
      3          6           0        4.224667    0.741025    0.098241
      4          6           0        3.184089   -0.254024    0.043889
      5          6           0        2.390953   -2.612454   -0.064040
      6          6           0        1.394708   -4.616577   -0.327203
      7          6           0        0.428223   -3.573479   -0.356477
      8          6           0       -0.154916    2.522172   -0.092713
      9          6           0       -1.154153    3.568659   -0.058793
     10          6           0       -2.925822   -0.831540   -0.060893
     11          6           0       -3.970369   -1.786674   -0.062804
     12          6           0       -2.139067    1.537343   -0.019981
     13          1           0       -5.023266   -1.563181    0.027122
     14          1           0       -0.946417    4.629335   -0.065216
     15          1           0        5.282947    0.533758    0.172486
     16          7           0        1.034328   -2.363113   -0.188698
     17          7           0       -1.713852   -1.478262   -0.209784
     18          7           0        1.954464    0.380219   -0.047334
     19          7           0       -0.777023    1.300126   -0.081332
     20          6           0        3.621681    1.960503    0.030221
     21          1           0        4.096389    2.931372    0.043837
     22          6           0        2.618913   -4.023500   -0.133539
     23          1           0        3.582643   -4.507534   -0.057970
     24          6           0       -3.413340   -3.043851   -0.243587
     25          6           0       -2.370625    2.962665   -0.004288
     26          1           0       -3.341119    3.436615    0.038423
     27          6           0       -0.985474   -3.849429   -0.562123
     28          6           0       -3.124390    0.564851    0.018242
     29          6           0        3.387888   -1.627888    0.055744
     30          6           0        1.227079    2.740616   -0.097253
     31          6           0        4.800288   -2.112289    0.177099
     32          6           0        5.604469   -2.331436   -0.946662
     33          6           0        5.379075   -2.381492    1.422092
     34          6           0        6.916819   -2.790803   -0.845494
     35          6           0        6.688766   -2.841644    1.551076
     36          6           0        7.460122   -3.047476    0.410471
     37          6           0        1.705679    4.157468   -0.115605
     38          6           0        1.994696    4.822510   -1.313659
     39          6           0        1.891749    4.893012    1.061508
     40          6           0        2.443005    6.142263   -1.347961
     41          6           0        2.338202    6.213721    1.056377
     42          6           0        2.614890    6.840427   -0.155745
     43          6           0       -4.543064    1.032883    0.131159
     44          6           0       -5.326424    1.292792   -0.998764
     45          6           0       -5.156716    1.223742    1.374032
     46          6           0       -6.648944    1.723507   -0.905754
     47          6           0       -6.477632    1.652726    1.495074
     48          6           0       -7.226499    1.902783    0.348369
     49          6           0       -4.223913   -4.263791   -0.238449
     50          6           0       -5.212349   -6.355969   -0.652487
     51          1           0       -3.247312   -5.718618   -1.483489
     52          9           0        4.672439   -2.195464    2.548561
     53          9           0        7.214196   -3.086991    2.764411
     54          9           0        8.723643   -3.489184    0.521304
     55          9           0        7.662687   -2.987144   -1.947198
     56          9           0        5.122231   -2.095743   -2.177474
     57          9           0        1.842498    4.190141   -2.488664
     58          9           0        2.709583    6.747900   -2.519014
     59          9           0        3.045858    8.112427   -0.174700
     60          9           0        2.504944    6.888009    2.208352
     61          9           0        1.639635    4.329798    2.254635
     62          9           0       -4.809219    1.135740   -2.228049
     63          9           0       -7.370781    1.969423   -2.013395
     64          9           0       -8.499174    2.319169    0.451413
     65          9           0       -7.034167    1.829343    2.706429
     66          9           0       -4.471369    0.996086    2.506150
     67          1           0       -5.284193   -7.348631   -1.084955
     68          8           0       -1.316011   -5.007308   -0.901714
     69          6           0       -4.111405   -5.478367   -0.882630
     70          6           0       -6.167466   -5.824104    0.174529
     71          1           0       -7.087492   -6.275957    0.520927
     72         16           0       -5.728355   -4.229865    0.691585
     73         78           0        0.125323   -0.539991   -0.139966
     74          1           0        1.152882   -5.662678   -0.441015
 ---------------------------------------------------------------------

 SCF Done:  E(RB3LYP) =  -3915.84928490     A.U. after   25 cycles

 Excitation energies and oscillator strengths:

 Excited State   1:      Singlet-A      1.9250 eV  644.09 nm  f=0.1819  <S**2>=0.000
     233 -> 236       -0.11283
     234 -> 235        0.69319
 This state for optimization and/or second-order correction.
 Total Energy, E(TD-HF/TD-DFT) =  -3915.77854412
 Copying the excited state density for this state as the 1-particle RhoCI density.

 Excited State   2:      Singlet-A      2.2523 eV  550.47 nm  f=0.0065  <S**2>=0.000
     233 -> 235        0.57083
     234 -> 236        0.40551

 Excited State   3:      Singlet-A      2.4364 eV  508.89 nm  f=0.0394  <S**2>=0.000
     231 -> 235        0.13183
     232 -> 235        0.55288
     233 -> 235        0.21143
     234 -> 236       -0.34486

 Excited State   4:      Singlet-A      2.6591 eV  466.26 nm  f=0.0126  <S**2>=0.000
     231 -> 235        0.66452
     233 -> 235       -0.10713
     233 -> 236       -0.13307

 Excited State   5:      Singlet-A      2.6790 eV  462.80 nm  f=0.0013  <S**2>=0.000
     234 -> 237        0.69986

 Excited State   6:      Singlet-A      2.7297 eV  454.20 nm  f=0.0000  <S**2>=0.000
     234 -> 238       -0.44491
     234 -> 239        0.53464

 Excited State   7:      Singlet-A      2.7872 eV  444.83 nm  f=0.0015  <S**2>=0.000
     234 -> 238       -0.19323
     234 -> 239       -0.18657
     234 -> 241        0.64411

 Excited State   8:      Singlet-A      2.8331 eV  437.63 nm  f=0.0002  <S**2>=0.000
     234 -> 238        0.49839
     234 -> 239        0.41324
     234 -> 241        0.26384

 Excited State   9:      Singlet-A      2.8789 eV  430.67 nm  f=0.0000  <S**2>=0.000
     234 -> 238       -0.10311
     234 -> 240        0.69065

 Excited State  10:      Singlet-A      2.9271 eV  423.57 nm  f=0.1198  <S**2>=0.000
     230 -> 235        0.12133
     231 -> 235        0.12485
     232 -> 236        0.20505
     233 -> 236        0.60757
     234 -> 236        0.10080

 Excited State  11:      Singlet-A      2.9430 eV  421.29 nm  f=0.0070  <S**2>=0.000
     234 -> 242        0.69483

 Excited State  12:      Singlet-A      2.9676 eV  417.80 nm  f=0.2644  <S**2>=0.000
     229 -> 235        0.49670
     230 -> 235        0.21273
     232 -> 235        0.21219
     233 -> 235       -0.18760
     233 -> 236       -0.10754
     234 -> 236        0.25112
     234 -> 244       -0.13197

 Excited State  13:      Singlet-A      2.9705 eV  417.39 nm  f=0.2405  <S**2>=0.000
     228 -> 235        0.10598
     229 -> 235        0.49234
     230 -> 235       -0.24877
     232 -> 235       -0.19770
     233 -> 235        0.17294
     233 -> 236        0.13792
     234 -> 236       -0.22891
     234 -> 244        0.12248

 Excited State  14:      Singlet-A      3.0359 eV  408.39 nm  f=0.0040  <S**2>=0.000
     234 -> 243        0.70065

 Excited State  15:      Singlet-A      3.0617 eV  404.95 nm  f=0.0060  <S**2>=0.000
     230 -> 235        0.25414
     234 -> 244        0.64749

 Excited State  16:      Singlet-A      3.1048 eV  399.33 nm  f=0.0771  <S**2>=0.000
     230 -> 235        0.32362
     232 -> 235       -0.13043
     232 -> 236        0.13254
     234 -> 236       -0.11541
     234 -> 244       -0.12560
     234 -> 245        0.54879

 Excited State  17:      Singlet-A      3.1268 eV  396.52 nm  f=0.0504  <S**2>=0.000
     228 -> 235       -0.17055
     230 -> 235       -0.29555
     231 -> 236       -0.40034
     232 -> 236        0.41812
     233 -> 236       -0.10427

 Excited State  18:      Singlet-A      3.1672 eV  391.47 nm  f=0.3498  <S**2>=0.000
     228 -> 235       -0.12742
     230 -> 235       -0.28677
     231 -> 236        0.17561
     232 -> 235        0.21685
     232 -> 236       -0.20440
     233 -> 235       -0.15902
     234 -> 236        0.20870
     234 -> 244        0.13759
     234 -> 245        0.41208

 Excited State  19:      Singlet-A      3.2132 eV  385.85 nm  f=0.0711  <S**2>=0.000
     228 -> 235       -0.23828
     231 -> 236        0.50689
     232 -> 235       -0.10300
     232 -> 236        0.32455
     234 -> 246       -0.13858

 Excited State  20:      Singlet-A      3.3044 eV  375.21 nm  f=0.0045  <S**2>=0.000
     228 -> 235       -0.21901
     234 -> 246        0.64336

 Excited State  21:      Singlet-A      3.3426 eV  370.92 nm  f=0.0005  <S**2>=0.000
     233 -> 237        0.54155
     233 -> 238       -0.18959
     233 -> 241        0.39138

 Excited State  22:      Singlet-A      3.3714 eV  367.76 nm  f=0.0003  <S**2>=0.000
     232 -> 237        0.10623
     233 -> 237       -0.41921
     233 -> 238       -0.16301
     233 -> 241        0.52284

 Excited State  23:      Singlet-A      3.3871 eV  366.04 nm  f=0.1015  <S**2>=0.000
     228 -> 235        0.53782
     230 -> 235       -0.13626
     230 -> 236        0.18439
     231 -> 236        0.14545
     232 -> 235        0.11762
     232 -> 236        0.20081
     234 -> 236        0.11319
     234 -> 246        0.15951

 Excited State  24:      Singlet-A      3.4187 eV  362.66 nm  f=0.0002  <S**2>=0.000
     232 -> 238        0.11088
     232 -> 239       -0.14218
     233 -> 238       -0.42616
     233 -> 239        0.48013
     233 -> 241       -0.19327

 Excited State  25:      Singlet-A      3.4344 eV  361.00 nm  f=0.0378  <S**2>=0.000
     226 -> 235       -0.10917
     227 -> 235       -0.10083
     228 -> 235       -0.16286
     228 -> 236        0.19454
     230 -> 236        0.55478
     230 -> 246        0.15340
     232 -> 236       -0.13608

 Excited State  26:      Singlet-A      3.4634 eV  357.98 nm  f=0.0004  <S**2>=0.000
     233 -> 238        0.44888
     233 -> 239        0.45039
     233 -> 241        0.14992
     233 -> 242        0.23159

 Excited State  27:      Singlet-A      3.5050 eV  353.73 nm  f=0.0002  <S**2>=0.000
     233 -> 238       -0.17666
     233 -> 239       -0.15302
     233 -> 242        0.65447

 Excited State  28:      Singlet-A      3.5317 eV  351.06 nm  f=0.0001  <S**2>=0.000
     232 -> 240       -0.12120
     233 -> 240        0.67946

 Excited State  29:      Singlet-A      3.5732 eV  346.99 nm  f=0.0017  <S**2>=0.000
     229 -> 236        0.69736

 Excited State  30:      Singlet-A      3.6476 eV  339.91 nm  f=0.0000  <S**2>=0.000
     231 -> 237        0.10112
     232 -> 237        0.56239
     232 -> 238        0.19024
     232 -> 239       -0.29909
     233 -> 237        0.11832
     233 -> 239       -0.10741

 Excited State  31:      Singlet-A      3.6785 eV  337.05 nm  f=0.0022  <S**2>=0.000
     232 -> 237        0.33984
     232 -> 238       -0.35300
     232 -> 239        0.37569
     232 -> 241        0.11384
     233 -> 239        0.10196
     233 -> 245       -0.23649

 Excited State  32:      Singlet-A      3.6808 eV  336.84 nm  f=0.0166  <S**2>=0.000
     232 -> 237        0.13495
     232 -> 238       -0.13120
     232 -> 239        0.13230
     233 -> 244       -0.11643
     233 -> 245        0.62849

 Excited State  33:      Singlet-A      3.6923 eV  335.79 nm  f=0.0002  <S**2>=0.000
     234 -> 247        0.63081
     234 -> 254        0.25562

 Excited State  34:      Singlet-A      3.6964 eV  335.42 nm  f=0.0015  <S**2>=0.000
     232 -> 243       -0.10508
     233 -> 243        0.68642

 Excited State  35:      Singlet-A      3.7218 eV  333.13 nm  f=0.0000  <S**2>=0.000
     231 -> 241       -0.10994
     232 -> 237       -0.10074
     232 -> 238       -0.12975
     232 -> 239       -0.19865
     232 -> 241        0.62948

 Excited State  36:      Singlet-A      3.7301 eV  332.38 nm  f=0.0402  <S**2>=0.000
     226 -> 235       -0.12377
     227 -> 235       -0.13037
     232 -> 244       -0.14506
     233 -> 244        0.64509

 Excited State  37:      Singlet-A      3.7692 eV  328.94 nm  f=0.0310  <S**2>=0.000
     226 -> 235        0.15012
     227 -> 235        0.22429
     228 -> 236        0.27918
     232 -> 238        0.36324
     232 -> 239        0.29972
     232 -> 240        0.18393
     232 -> 241        0.16573
     233 -> 244        0.11549

 Excited State  38:      Singlet-A      3.7706 eV  328.81 nm  f=0.0451  <S**2>=0.000
     226 -> 235        0.18189
     227 -> 235        0.28231
     228 -> 236        0.33962
     232 -> 238       -0.29472
     232 -> 239       -0.24823
     232 -> 240       -0.15652
     232 -> 241       -0.11996
     233 -> 244        0.13546
     233 -> 245        0.10039

 Excited State  39:      Singlet-A      3.7967 eV  326.56 nm  f=0.0007  <S**2>=0.000
     231 -> 237        0.53451
     231 -> 238        0.23208
     231 -> 239       -0.36278

 Excited State  40:      Singlet-A      3.8056 eV  325.80 nm  f=0.0002  <S**2>=0.000
     232 -> 238       -0.22736
     232 -> 240        0.63343
     232 -> 241       -0.10763
     233 -> 240        0.10853

 Excited State  41:      Singlet-A      3.8215 eV  324.44 nm  f=0.0389  <S**2>=0.000
     226 -> 235       -0.43531
     227 -> 235        0.47560
     228 -> 236       -0.11716
     233 -> 246       -0.22141

 Excited State  42:      Singlet-A      3.8323 eV  323.52 nm  f=0.0000  <S**2>=0.000
     231 -> 237        0.42483
     231 -> 238       -0.35413
     231 -> 239        0.39723

 Excited State  43:      Singlet-A      3.8473 eV  322.26 nm  f=0.2000  <S**2>=0.000
     227 -> 235        0.20617
     228 -> 236       -0.15009
     230 -> 236        0.19437
     233 -> 246        0.60616

 Excited State  44:      Singlet-A      3.8581 eV  321.36 nm  f=0.0013  <S**2>=0.000
     232 -> 242        0.68302

 Excited State  45:      Singlet-A      3.8862 eV  319.04 nm  f=0.0366  <S**2>=0.000
     225 -> 235        0.61651
     226 -> 235        0.22600
     228 -> 236       -0.13858

 Excited State  46:      Singlet-A      3.9115 eV  316.97 nm  f=0.0000  <S**2>=0.000
     231 -> 238       -0.39542
     231 -> 239       -0.31612
     231 -> 241        0.45770
     232 -> 241        0.10360

 Excited State  47:      Singlet-A      3.9310 eV  315.40 nm  f=0.0000  <S**2>=0.000
     231 -> 238        0.27761
     231 -> 239        0.25989
     231 -> 240        0.32592
     231 -> 241        0.48155

 Excited State  48:      Singlet-A      3.9594 eV  313.14 nm  f=0.0041  <S**2>=0.000
     231 -> 238       -0.26096
     231 -> 239       -0.11675
     231 -> 240        0.59900
     231 -> 241       -0.19037

 Excited State  49:      Singlet-A      3.9615 eV  312.97 nm  f=0.1669  <S**2>=0.000
     225 -> 235       -0.26590
     226 -> 235        0.31598
     227 -> 235        0.16784
     228 -> 236       -0.30656
     230 -> 236        0.13950
     232 -> 236       -0.10739
     232 -> 243        0.15527
     232 -> 244        0.22498
     232 -> 245        0.13750
     233 -> 246       -0.15182

 Excited State  50:      Singlet-A      3.9843 eV  311.18 nm  f=0.0082  <S**2>=0.000
     232 -> 243       -0.24997
     232 -> 244        0.60166
     233 -> 244        0.13205

 Excited State  51:      Singlet-A      4.0076 eV  309.38 nm  f=0.0393  <S**2>=0.000
     226 -> 235       -0.11319
     228 -> 236        0.10022
     232 -> 243        0.61527
     232 -> 244        0.19221
     232 -> 245       -0.11693

 Excited State  52:      Singlet-A      4.0358 eV  307.21 nm  f=0.0024  <S**2>=0.000
     228 -> 236        0.11726
     231 -> 245       -0.11797
     232 -> 245        0.59809
     232 -> 246       -0.10019
     234 -> 248        0.24940

 Excited State  53:      Singlet-A      4.0457 eV  306.46 nm  f=0.0006  <S**2>=0.000
     231 -> 242        0.68923

 Excited State  54:      Singlet-A      4.0876 eV  303.32 nm  f=0.0188  <S**2>=0.000
     232 -> 245       -0.26181
     232 -> 246       -0.33049
     234 -> 248        0.50454

 Excited State  55:      Singlet-A      4.1268 eV  300.44 nm  f=0.0087  <S**2>=0.000
     231 -> 243       -0.14165
     231 -> 244        0.66045
     232 -> 244       -0.10893
     232 -> 246        0.12229

 Excited State  56:      Singlet-A      4.1544 eV  298.44 nm  f=0.0022  <S**2>=0.000
     231 -> 243        0.67158
     231 -> 244        0.15732

 Excited State  57:      Singlet-A      4.1754 eV  296.94 nm  f=0.0049  <S**2>=0.000
     222 -> 235       -0.28398
     224 -> 235        0.19031
     228 -> 247       -0.11160
     231 -> 245        0.18255
     231 -> 246       -0.15415
     231 -> 247        0.16288
     232 -> 247        0.23217
     232 -> 254        0.13056
     233 -> 247        0.32309
     233 -> 254        0.15523
     234 -> 247        0.12099

 Excited State  58:      Singlet-A      4.1868 eV  296.13 nm  f=0.1562  <S**2>=0.000
     231 -> 244       -0.12013
     231 -> 246       -0.14770
     232 -> 246        0.54933
     234 -> 248        0.31426

 Excited State  59:      Singlet-A      4.2074 eV  294.68 nm  f=0.0286  <S**2>=0.000
     231 -> 245        0.58487
     231 -> 246       -0.24356
     232 -> 245        0.11248
     232 -> 247       -0.10118
     233 -> 247       -0.15275

 Excited State  60:      Singlet-A      4.2351 eV  292.75 nm  f=0.0001  <S**2>=0.000
     234 -> 249        0.18861
     234 -> 250        0.66053

 Excited State  61:      Singlet-A      4.2569 eV  291.25 nm  f=0.0025  <S**2>=0.000
     234 -> 249        0.65687
     234 -> 250       -0.17705
     234 -> 251       -0.10171

 Excited State  62:      Singlet-A      4.2772 eV  289.88 nm  f=0.0302  <S**2>=0.000
     222 -> 235        0.12808
     224 -> 235       -0.22616
     231 -> 245        0.28524
     231 -> 246        0.44027
     231 -> 247       -0.14533
     232 -> 246        0.14553
     232 -> 247        0.10951
     233 -> 247        0.19312

 Excited State  63:      Singlet-A      4.2802 eV  289.67 nm  f=0.0003  <S**2>=0.000
     228 -> 237       -0.18066
     230 -> 237        0.59298
     230 -> 238        0.12690
     230 -> 239       -0.21460
     231 -> 246        0.12518

 Excited State  64:      Singlet-A      4.2931 eV  288.80 nm  f=0.0646  <S**2>=0.000
     222 -> 235       -0.25159
     224 -> 235        0.36164
     230 -> 237       -0.14728
     231 -> 245        0.10778
     231 -> 246        0.36631
     233 -> 247       -0.20481

 Excited State  65:      Singlet-A      4.2994 eV  288.38 nm  f=0.0010  <S**2>=0.000
     231 -> 247        0.14904
     234 -> 247        0.11579
     234 -> 251        0.60007
     234 -> 254       -0.22334

 Excited State  66:      Singlet-A      4.3082 eV  287.79 nm  f=0.0149  <S**2>=0.000
     224 -> 235       -0.18859
     227 -> 236        0.10838
     230 -> 237       -0.16289
     230 -> 238        0.20275
     230 -> 239       -0.20842
     231 -> 247        0.32513
     231 -> 254        0.17880
     234 -> 247        0.10380
     234 -> 251       -0.26735
     234 -> 252       -0.10058
     234 -> 254       -0.19746

 Excited State  67:      Singlet-A      4.3109 eV  287.60 nm  f=0.0051  <S**2>=0.000
     230 -> 237        0.12772
     230 -> 238       -0.37468
     230 -> 239        0.41468
     230 -> 241        0.11518
     231 -> 247        0.19299
     231 -> 254        0.10680
     234 -> 251       -0.15537
     234 -> 254       -0.12214

 Excited State  68:      Singlet-A      4.3229 eV  286.81 nm  f=0.0000  <S**2>=0.000
     229 -> 237        0.68069

 Excited State  69:      Singlet-A      4.3281 eV  286.47 nm  f=0.0036  <S**2>=0.000
     224 -> 235       -0.14319
     227 -> 236        0.14908
     231 -> 247        0.22886
     231 -> 254        0.13076
     234 -> 247       -0.18524
     234 -> 251        0.10347
     234 -> 253       -0.11395
     234 -> 254        0.52176

 Excited State  70:      Singlet-A      4.3516 eV  284.92 nm  f=0.0009  <S**2>=0.000
     222 -> 235        0.16787
     226 -> 236       -0.15102
     227 -> 236       -0.23379
     230 -> 239        0.13136
     230 -> 241       -0.30331
     231 -> 247        0.16545
     234 -> 252        0.44682

 Excited State  71:      Singlet-A      4.3562 eV  284.62 nm  f=0.0059  <S**2>=0.000
     227 -> 236       -0.11642
     230 -> 238       -0.17480
     230 -> 239       -0.23074
     230 -> 241        0.49336
     234 -> 252        0.34215

 Excited State  72:      Singlet-A      4.3733 eV  283.50 nm  f=0.0001  <S**2>=0.000
     229 -> 238       -0.46931
     229 -> 239        0.50593

 Excited State  73:      Singlet-A      4.3763 eV  283.31 nm  f=0.0014  <S**2>=0.000
     222 -> 235       -0.32477
     224 -> 235       -0.14868
     227 -> 236        0.31903
     230 -> 239        0.10391
     231 -> 247       -0.15010
     233 -> 247       -0.12037
     234 -> 252        0.34083
     234 -> 253       -0.12076
     234 -> 254       -0.12159

 Excited State  74:      Singlet-A      4.3836 eV  282.84 nm  f=0.0020  <S**2>=0.000
     228 -> 238       -0.11609
     230 -> 238        0.38181
     230 -> 239        0.32087
     230 -> 240        0.26739
     230 -> 241        0.32287

 Excited State  75:      Singlet-A      4.3930 eV  282.23 nm  f=0.0024  <S**2>=0.000
     222 -> 235       -0.16219
     224 -> 235       -0.13258
     226 -> 236        0.42876
     227 -> 236       -0.33852
     230 -> 238        0.10320
     230 -> 239        0.10844
     230 -> 246       -0.18899
     234 -> 253       -0.18769

 The electronic state is 1-A.
 Alpha  occ. eigenvalues --  -88.81433 -24.70133 -24.70006 -24.69751 -24.69495
 Alpha  occ. eigenvalues --  -24.69481 -24.69375 -24.69370 -24.69120 -24.69117
 Alpha  occ. eigenvalues --  -24.68258 -24.68233 -24.68159 -24.68153 -24.67935
 Alpha  occ. eigenvalues --  -24.67927 -19.01947 -14.28943 -14.28874 -14.28790
 Alpha  occ. eigenvalues --  -14.28647 -10.26293 -10.26174 -10.25924 -10.25560
 Alpha  occ. eigenvalues --  -10.25552 -10.25456 -10.25452 -10.25227 -10.25220
 Alpha  occ. eigenvalues --  -10.25207 -10.25205 -10.25192 -10.25188 -10.24944
 Alpha  occ. eigenvalues --  -10.24940 -10.18005 -10.17997 -10.17760 -10.17056
 Alpha  occ. eigenvalues --  -10.15773 -10.15739 -10.15252 -10.15230 -10.14777
 Alpha  occ. eigenvalues --  -10.14524 -10.14397 -10.14386 -10.14119 -10.13669
 Alpha  occ. eigenvalues --  -10.13647 -10.13571 -10.12745 -10.12323 -10.12261
 Alpha  occ. eigenvalues --  -10.12099 -10.12010 -10.11968 -10.11454 -10.10303
 Alpha  occ. eigenvalues --  -10.10062 -10.09971 -10.09696  -7.88735  -5.85083
 Alpha  occ. eigenvalues --   -5.84721  -5.84378  -3.85817  -2.08475  -2.08393
 Alpha  occ. eigenvalues --   -2.04148  -1.22124  -1.22006  -1.21754  -1.21061
 Alpha  occ. eigenvalues --   -1.20959  -1.20710  -1.20492  -1.20387  -1.20140
 Alpha  occ. eigenvalues --   -1.19349  -1.19296  -1.19266  -1.19212  -1.19031
 Alpha  occ. eigenvalues --   -1.18974  -0.92351  -0.90030  -0.89055  -0.88220
 Alpha  occ. eigenvalues --   -0.87963  -0.85573  -0.85496  -0.85266  -0.79940
 Alpha  occ. eigenvalues --   -0.77816  -0.76886  -0.76308  -0.73236  -0.73159
 Alpha  occ. eigenvalues --   -0.72913  -0.71790  -0.71193  -0.70829  -0.70643
 Alpha  occ. eigenvalues --   -0.70170  -0.69627  -0.68636  -0.65700  -0.65225
 Alpha  occ. eigenvalues --   -0.65015  -0.63363  -0.62485  -0.62320  -0.61513
 Alpha  occ. eigenvalues --   -0.61444  -0.61199  -0.60549  -0.58241  -0.57655
 Alpha  occ. eigenvalues --   -0.55016  -0.54819  -0.54598  -0.54200  -0.54149
 Alpha  occ. eigenvalues --   -0.53905  -0.53460  -0.53219  -0.52925  -0.52742
 Alpha  occ. eigenvalues --   -0.51757  -0.50891  -0.50129  -0.50000  -0.49906
 Alpha  occ. eigenvalues --   -0.49762  -0.49661  -0.49324  -0.49164  -0.48953
 Alpha  occ. eigenvalues --   -0.48567  -0.48012  -0.47860  -0.47684  -0.47526
 Alpha  occ. eigenvalues --   -0.47472  -0.46790  -0.46753  -0.46748  -0.46519
 Alpha  occ. eigenvalues --   -0.46190  -0.44992  -0.44831  -0.44719  -0.44471
 Alpha  occ. eigenvalues --   -0.44159  -0.43952  -0.43730  -0.43390  -0.43330
 Alpha  occ. eigenvalues --   -0.42950  -0.41823  -0.41804  -0.41705  -0.41697
 Alpha  occ. eigenvalues --   -0.41468  -0.41461  -0.40011  -0.39769  -0.39650
 Alpha  occ. eigenvalues --   -0.39646  -0.39481  -0.39397  -0.39293  -0.38990
 Alpha  occ. eigenvalues --   -0.37934  -0.37874  -0.37737  -0.36754  -0.36671
 Alpha  occ. eigenvalues --   -0.36429  -0.35834  -0.35779  -0.35411  -0.35169
 Alpha  occ. eigenvalues --   -0.35053  -0.34882  -0.34561  -0.34245  -0.33936
 Alpha  occ. eigenvalues --   -0.33855  -0.33837  -0.33731  -0.33607  -0.33177
 Alpha  occ. eigenvalues --   -0.32818  -0.32377  -0.32279  -0.31560  -0.31190
 Alpha  occ. eigenvalues --   -0.30917  -0.30653  -0.30545  -0.30075  -0.29997
 Alpha  occ. eigenvalues --   -0.29963  -0.29394  -0.28682  -0.27956  -0.26053
 Alpha  occ. eigenvalues --   -0.25511  -0.25163  -0.24071  -0.22394  -0.22194
 Alpha  occ. eigenvalues --   -0.21978  -0.21761  -0.21552  -0.21475  -0.21066
 Alpha  occ. eigenvalues --   -0.20998  -0.20805  -0.20746  -0.19709  -0.18261
 Alpha  occ. eigenvalues --   -0.17445  -0.17303  -0.16052  -0.15783  -0.15297
 Alpha  occ. eigenvalues --   -0.13841  -0.13221  -0.11991  -0.09857
 Alpha virt. eigenvalues --   -0.01715   0.00307   0.01847   0.01978   0.02056
 Alpha virt. eigenvalues --    0.02209   0.02269   0.02445   0.03011   0.03106
 Alpha virt. eigenvalues --    0.03324   0.03812   0.06579   0.06913   0.07093

 Mulliken charges:
               1
     1  C   -0.030412
     2  C    0.229741
     3  C   -0.042646
     4  C    0.192634
     5  C    0.204029
     6  C   -0.028263
     7  C   -0.092264
     8  C    0.223930
     9  C   -0.107936
    10  C    0.038978
    11  C   -0.216185
    12  C    0.077965
    13  H    0.119516
    14  H    0.114348
    15  H    0.115203
    16  N   -0.104260
    17  N    0.062844
    18  N   -0.080313
    19  N   -0.060045
    20  C   -0.007715
    21  H    0.113566
    22  C    0.047070
    23  H    0.106097
    24  C    0.679081
    25  C   -0.116436
    26  H    0.116942
    27  C    0.055577
    28  C   -0.036166
    29  C   -0.071849
    30  C    0.008822
    31  C   -0.652546
    32  C    0.139438
    33  C    0.160894
    34  C    0.267931
    35  C    0.283766
    36  C    0.528951
    37  C   -0.604344
    38  C    0.061501
    39  C    0.037657
    40  C    0.391416
    41  C    0.371596
    42  C    0.451458
    43  C   -0.727359
    44  C    0.293421
    45  C    0.276013
    46  C    0.159124
    47  C    0.194100
    48  C    0.589821
    49  C   -0.336280
    50  C   -0.214831
    51  H    0.168647
    52  F   -0.281795
    53  F   -0.352005
    54  F   -0.352250
    55  F   -0.351752
    56  F   -0.281630
    57  F   -0.280343
    58  F   -0.355224
    59  F   -0.351168
    60  F   -0.354707
    61  F   -0.280749
    62  F   -0.279814
    63  F   -0.348822
    64  F   -0.352992
    65  F   -0.346906
    66  F   -0.280251
    67  H    0.119593
    68  O   -0.592081
    69  C    0.165568
    70  C   -0.120752
    71  H    0.140905
    72  S   -0.019824
    73  Pt   0.662384
    74  H    0.142385
 Sum of Mulliken charges =  -1.00000

 Dipole moment (field-independent basis, Debye):
    X=              2.0287    Y=              5.3105    Z=              0.7022  Tot=              5.7280
 Quadrupole moment (field-independent basis, Debye-Ang):
   XX=           -465.1500   YY=           -452.9814   ZZ=           -414.9085
   XY=             -5.6273   XZ=             -0.8388   YZ=             -2.4413

 Normal termination of Gaussian 16 at Sat Sep  3 20:47:59 2022.
