 Gaussian 16, Revision C.01,
 Gaussian 16:  ES64L-G16RevC.01  3-Jul-2019

 ----------------------------------------------------------------
 # td=(nstates=75) b3lyp/genecp geom=connectivity scf=maxcyc=1000
 ----------------------------------------------------------------

 -----
 title
 -----
 Symbolic Z-matrix:
 Charge =  0 Multiplicity = 1

                         Standard orientation:
 ---------------------------------------------------------------------
 Center     Atomic      Atomic             Coordinates (Angstroms)
 Number     Number       Type             X           Y           Z
 ---------------------------------------------------------------------
      1          6           0       -1.336719   -2.756898   -0.179294
      2          6           0        1.343262    2.789533    0.020914
      3          6           0        3.566195    2.431986    0.164624
      4          6           0        2.855348    1.176544    0.079521
      5          6           0        2.770865   -1.300235   -0.033445
      6          6           0        2.442378   -3.530328   -0.243975
      7          6           0        1.173707   -2.824733   -0.204511
      8          6           0       -1.127606    2.872278   -0.047345
      9          6           0       -2.384385    3.587395   -0.052721
     10          6           0       -2.819145   -1.119350   -0.054081
     11          6           0       -3.546761   -2.345124   -0.081841
     12          6           0       -2.742488    1.361633   -0.025313
     13          1           0       -4.622425   -2.431864   -0.083027
     14          1           0       -2.485844    4.661936   -0.071477
     15          1           0        4.637399    2.533665    0.251828
     16          7           0        1.409988   -1.471335   -0.096417
     17          7           0       -1.474062   -1.384158   -0.114093
     18          7           0        1.499264    1.425985    0.000776
     19          7           0       -1.372185    1.520834   -0.040444
     20          6           0        2.640454    3.420344    0.121427
     21          1           0        2.808773    4.485637    0.169382
     22          6           0        3.413554   -2.571461   -0.115626
     23          1           0        4.479944   -2.738523   -0.126153
     24          6           0       -2.654251   -3.384164   -0.171007
     25          6           0       -3.373558    2.661814   -0.027677
     26          1           0       -4.439233    2.833690   -0.012353
     27          6           0       -0.101708   -3.424595   -0.208665
     28          6           0       -3.422020    0.151072   -0.011323
     29          6           0        3.456328   -0.074731    0.069421
     30          6           0        0.129574    3.482029   -0.022441
     31          6           0        4.947308   -0.132789    0.162754
     32          6           0        5.763458    0.218655   -0.917546
     33          6           0        5.586242   -0.547651    1.336119
     34          6           0        7.153570    0.167284   -0.838488
     35          6           0        6.974103   -0.611778    1.437131
     36          6           0        7.759442   -0.251068    0.344212
     37          6           0        0.182263    4.975722   -0.024918
     38          6           0        0.583083    5.687711   -1.160629
     39          6           0       -0.161978    5.723517    1.106244
     40          6           0        0.642215    7.079563   -1.176492
     41          6           0       -0.116586    7.115912    1.112515
     42          6           0        0.289047    7.794984   -0.034390
     43          6           0       -4.916227    0.195211    0.042616
     44          6           0       -5.679875    0.502411   -1.087661
     45          6           0       -5.608212   -0.075539    1.227382
     46          6           0       -7.071883    0.544806   -1.046823
     47          6           0       -6.999471   -0.043719    1.291430
     48          6           0       -7.732330    0.268896    0.148401
     49          6           0       -3.081679   -4.783943   -0.233470
     50          6           0       -3.494309   -6.997219   -0.885191
     51          1           0       -1.911344   -5.732342   -1.780532
     52          6           0        2.717074   -4.965540   -0.397920
     53          6           0        2.922351   -7.135760   -1.270924
     54          1           0        1.800804   -5.509512   -2.285330
     55          9           0        4.859197   -0.899159    2.404317
     56          9           0        7.555366   -1.010835    2.573242
     57          9           0        9.090155   -0.306208    0.430256
     58          9           0        7.907027    0.510357   -1.888530
     59          9           0        5.212585    0.621013   -2.069897
     60          9           0        0.927046    5.029975   -2.275192
     61          9           0        1.029276    7.731113   -2.278233
     62          9           0        0.339263    9.128783   -0.038823
     63          9           0       -0.452539    7.802213    2.210025
     64          9           0       -0.552716    5.101132    2.226028
     65          9           0       -5.074139    0.770865   -2.251759
     66          9           0       -7.775400    0.843890   -2.144117
     67          9           0       -9.065655    0.305309    0.198768
     68          9           0       -7.633576   -0.305177    2.439109
     69          9           0       -4.931104   -0.377728    2.342042
     70          1           0        2.766178   -7.938883   -1.981622
     71          1           0       -3.344865   -7.907667   -1.454762
     72          6           0        2.386448   -5.824087   -1.428439
     73          6           0       -2.715084   -5.819084   -1.062157
     74          6           0       -4.454867   -6.863011    0.081080
     75          1           0       -5.166789   -7.599199    0.427823
     76         16           0       -4.420674   -5.285537    0.789895
     77         16           0        3.716260   -5.797844    0.779184
     78          6           0        3.666501   -7.269350   -0.130397
     79          1           0        4.179296   -8.148789    0.234327
     80          8           0       -0.199057   -4.770512   -0.228304
     81          1           0        0.679461   -5.186956   -0.193138
     82         78           0        0.015203    0.021603   -0.063386
 ---------------------------------------------------------------------

 SCF Done:  E(RB3LYP) =  -4467.97101078     A.U. after   22 cycles

 Excitation energies and oscillator strengths:

 Excited State   1:      Singlet-A      2.3401 eV  529.81 nm  f=0.0184  <S**2>=0.000
     254 -> 256       -0.36772
     254 -> 257       -0.28263
     255 -> 256        0.48108
     255 -> 257       -0.19264
 This state for optimization and/or second-order correction.
 Total Energy, E(TD-HF/TD-DFT) =  -4467.88501211
 Copying the excited state density for this state as the 1-particle RhoCI density.

 Excited State   2:      Singlet-A      2.3639 eV  524.48 nm  f=0.0145  <S**2>=0.000
     253 -> 257       -0.15083
     254 -> 256        0.44970
     254 -> 257       -0.21627
     255 -> 256        0.32619
     255 -> 257        0.33763

 Excited State   3:      Singlet-A      2.5378 eV  488.55 nm  f=0.0246  <S**2>=0.000
     251 -> 256        0.10627
     253 -> 256        0.55688
     253 -> 257        0.14340
     254 -> 256       -0.17588
     255 -> 257        0.32387

 Excited State   4:      Singlet-A      2.6696 eV  464.44 nm  f=0.1295  <S**2>=0.000
     252 -> 256       -0.34051
     253 -> 256        0.14572
     253 -> 257       -0.36911
     254 -> 257        0.40383
     255 -> 256        0.15539
     255 -> 257       -0.14211

 Excited State   5:      Singlet-A      2.7584 eV  449.48 nm  f=0.0586  <S**2>=0.000
     252 -> 256        0.51878
     252 -> 257       -0.31455
     254 -> 257        0.29574
     255 -> 256        0.13866

 Excited State   6:      Singlet-A      3.0078 eV  412.21 nm  f=0.0316  <S**2>=0.000
     251 -> 256       -0.20954
     251 -> 257        0.15776
     252 -> 256        0.21099
     252 -> 257        0.56996
     253 -> 257       -0.10155
     254 -> 257        0.14743

 Excited State   7:      Singlet-A      3.0768 eV  402.97 nm  f=0.3844  <S**2>=0.000
     251 -> 256        0.38922
     251 -> 257        0.31221
     253 -> 257        0.30362
     254 -> 256        0.19429
     254 -> 257        0.18288
     255 -> 256        0.16126
     255 -> 257       -0.18286

 Excited State   8:      Singlet-A      3.1405 eV  394.79 nm  f=0.0109  <S**2>=0.000
     249 -> 256        0.45126
     250 -> 256        0.52523

 Excited State   9:      Singlet-A      3.1830 eV  389.52 nm  f=0.6074  <S**2>=0.000
     251 -> 256       -0.33123
     252 -> 256       -0.20332
     252 -> 257       -0.14333
     253 -> 256       -0.21650
     253 -> 257        0.34078
     254 -> 256       -0.10168
     254 -> 257        0.19749
     255 -> 256        0.20510
     255 -> 257        0.23104

 Excited State  10:      Singlet-A      3.2643 eV  379.82 nm  f=0.6070  <S**2>=0.000
     251 -> 256        0.38149
     253 -> 256       -0.31209
     253 -> 257       -0.20680
     254 -> 256       -0.23268
     255 -> 257        0.33790

 Excited State  11:      Singlet-A      3.3573 eV  369.30 nm  f=0.0015  <S**2>=0.000
     249 -> 257        0.44945
     250 -> 257        0.52695

 Excited State  12:      Singlet-A      3.4137 eV  363.19 nm  f=0.1684  <S**2>=0.000
     248 -> 256       -0.12620
     251 -> 256       -0.14305
     251 -> 257        0.58417
     252 -> 257       -0.17944
     253 -> 257       -0.17229
     255 -> 256       -0.14548

 Excited State  13:      Singlet-A      3.5799 eV  346.34 nm  f=0.0418  <S**2>=0.000
     248 -> 256        0.49210
     249 -> 256       -0.31621
     250 -> 256        0.35311

 Excited State  14:      Singlet-A      3.6141 eV  343.05 nm  f=0.0284  <S**2>=0.000
     248 -> 256        0.44798
     249 -> 256        0.43496
     250 -> 256       -0.29703

 Excited State  15:      Singlet-A      3.6878 eV  336.20 nm  f=0.0333  <S**2>=0.000
     255 -> 258        0.67434

 Excited State  16:      Singlet-A      3.7482 eV  330.78 nm  f=0.0156  <S**2>=0.000
     248 -> 257       -0.14828
     249 -> 257        0.50185
     250 -> 257       -0.45068

 Excited State  17:      Singlet-A      3.7632 eV  329.46 nm  f=0.0151  <S**2>=0.000
     247 -> 256        0.60243
     248 -> 257       -0.14393
     249 -> 257       -0.10798
     254 -> 258       -0.28832

 Excited State  18:      Singlet-A      3.7695 eV  328.91 nm  f=0.1059  <S**2>=0.000
     247 -> 256        0.33822
     248 -> 257        0.13291
     254 -> 258        0.57493

 Excited State  19:      Singlet-A      3.7959 eV  326.62 nm  f=0.0329  <S**2>=0.000
     248 -> 257        0.63349
     249 -> 257        0.14709
     254 -> 258       -0.19529

 Excited State  20:      Singlet-A      3.8422 eV  322.69 nm  f=0.0082  <S**2>=0.000
     245 -> 256        0.67802
     246 -> 256        0.15888

 Excited State  21:      Singlet-A      3.8524 eV  321.84 nm  f=0.0011  <S**2>=0.000
     245 -> 256       -0.15748
     246 -> 256        0.68657

 Excited State  22:      Singlet-A      3.9834 eV  311.25 nm  f=0.0068  <S**2>=0.000
     243 -> 256        0.25590
     244 -> 256        0.63842

 Excited State  23:      Singlet-A      4.0111 eV  309.11 nm  f=0.0893  <S**2>=0.000
     241 -> 256       -0.10590
     242 -> 256       -0.10146
     243 -> 256        0.27835
     246 -> 257        0.42172
     253 -> 258        0.42238

 Excited State  24:      Singlet-A      4.0210 eV  308.34 nm  f=0.0578  <S**2>=0.000
     243 -> 256       -0.14979
     246 -> 257        0.53542
     247 -> 257       -0.10651
     253 -> 258       -0.36574

 Excited State  25:      Singlet-A      4.0366 eV  307.15 nm  f=0.0019  <S**2>=0.000
     246 -> 257        0.13917
     247 -> 257        0.67626
     255 -> 259       -0.10386

 Excited State  26:      Singlet-A      4.0580 eV  305.53 nm  f=0.0143  <S**2>=0.000
     241 -> 256        0.12879
     242 -> 256        0.47836
     247 -> 257       -0.11401
     253 -> 258        0.16545
     255 -> 259       -0.38497
     255 -> 266        0.10069

 Excited State  27:      Singlet-A      4.0639 eV  305.08 nm  f=0.0127  <S**2>=0.000
     242 -> 256        0.40973
     243 -> 256        0.37277
     244 -> 256       -0.13344
     255 -> 259        0.34803
     255 -> 260        0.11463

 Excited State  28:      Singlet-A      4.0870 eV  303.36 nm  f=0.0160  <S**2>=0.000
     242 -> 256       -0.13999
     243 -> 256        0.40798
     244 -> 256       -0.21411
     252 -> 258        0.10274
     253 -> 258       -0.25298
     255 -> 259       -0.32070
     255 -> 260       -0.13289
     255 -> 266        0.11383

 Excited State  29:      Singlet-A      4.1062 eV  301.94 nm  f=0.0281  <S**2>=0.000
     240 -> 256       -0.33533
     241 -> 256        0.49661
     242 -> 256       -0.12617
     253 -> 258        0.17857
     254 -> 259       -0.12113
     255 -> 259        0.14222
     255 -> 260        0.12578
     255 -> 261        0.10096

 Excited State  30:      Singlet-A      4.1100 eV  301.67 nm  f=0.0132  <S**2>=0.000
     241 -> 256       -0.10708
     242 -> 256       -0.13401
     245 -> 257       -0.16336
     252 -> 258        0.12881
     254 -> 260        0.11560
     255 -> 260        0.61155

 Excited State  31:      Singlet-A      4.1228 eV  300.73 nm  f=0.0046  <S**2>=0.000
     245 -> 257        0.67686
     255 -> 260        0.14303

 Excited State  32:      Singlet-A      4.1737 eV  297.06 nm  f=0.0504  <S**2>=0.000
     238 -> 256       -0.11420
     240 -> 257        0.12256
     241 -> 257       -0.16926
     244 -> 257        0.18660
     251 -> 258        0.12622
     252 -> 258        0.47485
     254 -> 259        0.24191
     255 -> 260       -0.10121
     255 -> 262       -0.21571

 Excited State  33:      Singlet-A      4.1802 eV  296.60 nm  f=0.0140  <S**2>=0.000
     240 -> 256        0.12076
     241 -> 256       -0.11260
     251 -> 266       -0.14723
     253 -> 266       -0.11287
     254 -> 259       -0.30554
     254 -> 266        0.15557
     255 -> 261        0.40144
     255 -> 262       -0.24313
     255 -> 266       -0.23440

 Excited State  34:      Singlet-A      4.1836 eV  296.36 nm  f=0.0546  <S**2>=0.000
     241 -> 257        0.10679
     252 -> 258       -0.19282
     254 -> 259        0.40153
     254 -> 261        0.12597
     254 -> 266       -0.17550
     255 -> 261        0.33412
     255 -> 262       -0.25407

 Excited State  35:      Singlet-A      4.1995 eV  295.23 nm  f=0.0001  <S**2>=0.000
     252 -> 258        0.15558
     254 -> 259        0.12661
     255 -> 261        0.31858
     255 -> 262        0.54148
     255 -> 266       -0.12521

 Excited State  36:      Singlet-A      4.2363 eV  292.67 nm  f=0.0028  <S**2>=0.000
     240 -> 256        0.17316
     241 -> 256        0.15200
     243 -> 257       -0.17693
     244 -> 257        0.55923
     252 -> 258       -0.19538
     255 -> 262        0.11105

 Excited State  37:      Singlet-A      4.2412 eV  292.33 nm  f=0.0200  <S**2>=0.000
     238 -> 256       -0.10822
     240 -> 256        0.41740
     241 -> 256        0.31832
     241 -> 257       -0.20081
     243 -> 257        0.26796
     244 -> 257       -0.18327
     252 -> 258       -0.15524

 Excited State  38:      Singlet-A      4.2522 eV  291.57 nm  f=0.0211  <S**2>=0.000
     237 -> 256       -0.11814
     241 -> 257       -0.10070
     251 -> 266        0.15998
     253 -> 266        0.18704
     254 -> 259       -0.24470
     254 -> 261        0.13177
     254 -> 262       -0.11137
     254 -> 266       -0.11619
     255 -> 259        0.18650
     255 -> 261        0.21693
     255 -> 266        0.38820

 Excited State  39:      Singlet-A      4.2562 eV  291.30 nm  f=0.0170  <S**2>=0.000
     240 -> 256       -0.30876
     240 -> 257        0.18645
     241 -> 256       -0.17234
     241 -> 257       -0.19398
     242 -> 257       -0.21605
     243 -> 257        0.39549
     244 -> 257        0.13836
     252 -> 258       -0.22156

 Excited State  40:      Singlet-A      4.2834 eV  289.45 nm  f=0.0105  <S**2>=0.000
     253 -> 260        0.13730
     254 -> 260        0.53635
     254 -> 261        0.16887
     254 -> 262       -0.31122
     255 -> 266       -0.13815

 Excited State  41:      Singlet-A      4.2915 eV  288.90 nm  f=0.0057  <S**2>=0.000
     239 -> 256        0.10020
     253 -> 260        0.11649
     254 -> 260        0.37852
     254 -> 261       -0.22038
     254 -> 262        0.44295
     254 -> 266        0.11364
     255 -> 266        0.15098

 Excited State  42:      Singlet-A      4.3054 eV  287.97 nm  f=0.0014  <S**2>=0.000
     238 -> 256        0.12336
     239 -> 256        0.11926
     240 -> 257       -0.17550
     241 -> 257        0.25023
     242 -> 257        0.21059
     243 -> 257        0.44085
     244 -> 257        0.22855
     252 -> 258        0.12226
     254 -> 262       -0.18891

 Excited State  43:      Singlet-A      4.3167 eV  287.22 nm  f=0.0045  <S**2>=0.000
     237 -> 256        0.11012
     238 -> 256       -0.10150
     251 -> 266       -0.11544
     253 -> 259        0.12249
     253 -> 266       -0.18845
     254 -> 259        0.21931
     254 -> 262       -0.24692
     254 -> 266        0.35585
     255 -> 266        0.33547

 Excited State  44:      Singlet-A      4.3488 eV  285.10 nm  f=0.0005  <S**2>=0.000
     237 -> 256        0.17752
     238 -> 256       -0.13214
     239 -> 256       -0.19262
     242 -> 257        0.21390
     251 -> 266        0.10620
     252 -> 259       -0.16059
     252 -> 266        0.39958
     254 -> 261        0.20068
     254 -> 262        0.15403
     254 -> 266       -0.12514
     255 -> 266        0.10793

 Excited State  45:      Singlet-A      4.3628 eV  284.18 nm  f=0.0329  <S**2>=0.000
     239 -> 256       -0.19384
     241 -> 257       -0.20400
     242 -> 257        0.36060
     251 -> 266       -0.10158
     252 -> 259        0.12366
     252 -> 266       -0.24830
     254 -> 261        0.31390
     254 -> 262        0.11278
     254 -> 266        0.14781

 Excited State  46:      Singlet-A      4.3698 eV  283.73 nm  f=0.0044  <S**2>=0.000
     241 -> 257        0.22823
     242 -> 257       -0.40892
     254 -> 261        0.41021
     254 -> 262        0.19524

 Excited State  47:      Singlet-A      4.3878 eV  282.57 nm  f=0.0007  <S**2>=0.000
     238 -> 256        0.52264
     239 -> 256        0.19852
     241 -> 257       -0.32100
     252 -> 266        0.16372
     254 -> 261        0.10350

 Excited State  48:      Singlet-A      4.4315 eV  279.78 nm  f=0.0176  <S**2>=0.000
     238 -> 256        0.21855
     240 -> 257        0.57864
     241 -> 257        0.27896

 Excited State  49:      Singlet-A      4.4545 eV  278.33 nm  f=0.0663  <S**2>=0.000
     238 -> 256       -0.24452
     239 -> 256        0.51169
     240 -> 257        0.16891
     242 -> 257        0.11877
     249 -> 266        0.10204
     250 -> 266        0.10830
     253 -> 259       -0.12324
     254 -> 261        0.16291

 Excited State  50:      Singlet-A      4.4614 eV  277.90 nm  f=0.0049  <S**2>=0.000
     252 -> 266       -0.14397
     253 -> 259        0.53200
     253 -> 266       -0.16889
     254 -> 266       -0.26107

 Excited State  51:      Singlet-A      4.4872 eV  276.31 nm  f=0.0023  <S**2>=0.000
     254 -> 263        0.11750
     255 -> 263        0.67931

 Excited State  52:      Singlet-A      4.4985 eV  275.61 nm  f=0.0023  <S**2>=0.000
     237 -> 256        0.61259
     252 -> 259        0.14034
     252 -> 266       -0.18792
     254 -> 266       -0.18015

 Excited State  53:      Singlet-A      4.5229 eV  274.13 nm  f=0.0106  <S**2>=0.000
     238 -> 257       -0.15720
     249 -> 266        0.27225
     250 -> 266        0.31256
     251 -> 258        0.45331
     253 -> 260       -0.11234

 Excited State  54:      Singlet-A      4.5367 eV  273.29 nm  f=0.0070  <S**2>=0.000
     254 -> 264        0.14822
     255 -> 264        0.67298

 Excited State  55:      Singlet-A      4.5520 eV  272.37 nm  f=0.0205  <S**2>=0.000
     239 -> 256        0.10109
     249 -> 266       -0.15466
     250 -> 266       -0.17920
     251 -> 258        0.32071
     253 -> 260        0.44652
     253 -> 266       -0.16074
     254 -> 260       -0.10712
     254 -> 266       -0.12840

 Excited State  56:      Singlet-A      4.5560 eV  272.14 nm  f=0.0018  <S**2>=0.000
     249 -> 266        0.20387
     250 -> 266        0.23636
     251 -> 258       -0.18235
     253 -> 259        0.10104
     253 -> 260        0.42952
     253 -> 266        0.20530
     254 -> 260       -0.11547
     254 -> 266        0.13700
     255 -> 265        0.13481

 Excited State  57:      Singlet-A      4.5631 eV  271.71 nm  f=0.0074  <S**2>=0.000
     251 -> 258       -0.12902
     253 -> 259       -0.11235
     253 -> 266       -0.17084
     255 -> 265        0.61867

 Excited State  58:      Singlet-A      4.5825 eV  270.56 nm  f=0.0072  <S**2>=0.000
     237 -> 256        0.11986
     249 -> 266       -0.13323
     250 -> 266       -0.14152
     251 -> 258        0.14869
     253 -> 259        0.29334
     253 -> 260       -0.14844
     253 -> 261       -0.14543
     253 -> 262        0.16187
     253 -> 266        0.31591
     254 -> 266        0.13541
     255 -> 265        0.26528

 Excited State  59:      Singlet-A      4.6023 eV  269.39 nm  f=0.0051  <S**2>=0.000
     238 -> 257        0.60414
     239 -> 257        0.22485
     251 -> 258        0.17032

 Excited State  60:      Singlet-A      4.6365 eV  267.41 nm  f=0.0096  <S**2>=0.000
     252 -> 259        0.11889
     253 -> 261       -0.23825
     253 -> 262        0.58781
     253 -> 266       -0.14375

 Excited State  61:      Singlet-A      4.6502 eV  266.62 nm  f=0.0120  <S**2>=0.000
     236 -> 256       -0.12586
     238 -> 257        0.16792
     239 -> 257       -0.33124
     253 -> 261       -0.10048
     253 -> 262       -0.11016
     254 -> 263        0.41463
     254 -> 265        0.30954

 Excited State  62:      Singlet-A      4.6558 eV  266.30 nm  f=0.0275  <S**2>=0.000
     236 -> 256        0.12264
     238 -> 257       -0.17323
     239 -> 257        0.41449
     252 -> 259       -0.20493
     254 -> 263        0.29159
     254 -> 265        0.30402

 Excited State  63:      Singlet-A      4.6698 eV  265.50 nm  f=0.0003  <S**2>=0.000
     253 -> 263       -0.12392
     254 -> 263       -0.43035
     254 -> 265        0.52162

 Excited State  64:      Singlet-A      4.6739 eV  265.27 nm  f=0.0648  <S**2>=0.000
     237 -> 257       -0.27625
     252 -> 259        0.50350
     252 -> 266        0.14325
     253 -> 261        0.21881
     254 -> 263        0.10333
     254 -> 265        0.11817
     255 -> 267        0.12809

 Excited State  65:      Singlet-A      4.6835 eV  264.72 nm  f=0.0240  <S**2>=0.000
     238 -> 257        0.11546
     239 -> 257       -0.11725
     252 -> 259       -0.18180
     253 -> 261        0.52742
     253 -> 262        0.26696
     253 -> 266        0.11631

 Excited State  66:      Singlet-A      4.6997 eV  263.81 nm  f=0.0008  <S**2>=0.000
     249 -> 258        0.42686
     250 -> 258        0.51718

 Excited State  67:      Singlet-A      4.7047 eV  263.53 nm  f=0.0011  <S**2>=0.000
     253 -> 264        0.13015
     254 -> 264        0.66061
     255 -> 264       -0.13872

 Excited State  68:      Singlet-A      4.7206 eV  262.64 nm  f=0.0068  <S**2>=0.000
     237 -> 257        0.61151
     252 -> 259        0.19488
     252 -> 266        0.20170

 Excited State  69:      Singlet-A      4.7482 eV  261.12 nm  f=0.0075  <S**2>=0.000
     252 -> 259        0.10038
     252 -> 260        0.67843

 Excited State  70:      Singlet-A      4.7824 eV  259.25 nm  f=0.0290  <S**2>=0.000
     236 -> 256       -0.20957
     255 -> 267        0.62960

 Excited State  71:      Singlet-A      4.8438 eV  255.96 nm  f=0.0137  <S**2>=0.000
     252 -> 261        0.54732
     252 -> 262       -0.38396
     254 -> 267        0.10400

 Excited State  72:      Singlet-A      4.8588 eV  255.17 nm  f=0.0042  <S**2>=0.000
     252 -> 261        0.34864
     252 -> 262        0.56929
     254 -> 267        0.13538

 Excited State  73:      Singlet-A      4.8824 eV  253.94 nm  f=0.0988  <S**2>=0.000
     236 -> 256       -0.18464
     236 -> 257        0.17581
     251 -> 259       -0.10656
     252 -> 261       -0.16322
     253 -> 263        0.11713
     254 -> 267        0.57581

 Excited State  74:      Singlet-A      4.9197 eV  252.02 nm  f=0.0037  <S**2>=0.000
     249 -> 258        0.49797
     250 -> 258       -0.41691
     253 -> 263        0.24089

 Excited State  75:      Singlet-A      4.9230 eV  251.85 nm  f=0.0009  <S**2>=0.000
     249 -> 258       -0.19170
     250 -> 258        0.15604
     253 -> 263        0.61383
     254 -> 263       -0.13936
     254 -> 267       -0.11275

 The electronic state is 1-A.
 Alpha  occ. eigenvalues --  -88.91226 -88.88880 -24.74027 -24.73849 -24.73712
 Alpha  occ. eigenvalues --  -24.73578 -24.73575 -24.73404 -24.73389 -24.73368
 Alpha  occ. eigenvalues --  -24.73367 -24.73285 -24.73240 -24.73187 -24.73153
 Alpha  occ. eigenvalues --  -24.73085 -24.73014 -19.19115 -14.38401 -14.38069
 Alpha  occ. eigenvalues --  -14.37661 -14.37591 -10.31296 -10.31106 -10.30973
 Alpha  occ. eigenvalues --  -10.30868 -10.30858 -10.30674 -10.30671 -10.30655
 Alpha  occ. eigenvalues --  -10.30647 -10.30558 -10.30529 -10.30486 -10.30478
 Alpha  occ. eigenvalues --  -10.30362 -10.30341 -10.28294 -10.24539 -10.24250
 Alpha  occ. eigenvalues --  -10.24094 -10.24079 -10.24032 -10.23991 -10.23953
 Alpha  occ. eigenvalues --  -10.23839 -10.23823 -10.23815 -10.23704 -10.23628
 Alpha  occ. eigenvalues --  -10.23171 -10.22956 -10.22751 -10.22454 -10.22153
 Alpha  occ. eigenvalues --  -10.21974 -10.21569 -10.21314 -10.21141 -10.20982
 Alpha  occ. eigenvalues --  -10.20149 -10.20097 -10.20021 -10.19985 -10.19910
 Alpha  occ. eigenvalues --  -10.19090 -10.18944 -10.18700  -7.98748  -7.96438
 Alpha  occ. eigenvalues --   -5.95079  -5.94702  -5.94387  -5.92768  -5.92399
 Alpha  occ. eigenvalues --   -5.92067  -3.95190  -2.17860  -2.17836  -2.13552
 Alpha  occ. eigenvalues --   -1.26750  -1.26565  -1.26432  -1.25969  -1.25779
 Alpha  occ. eigenvalues --   -1.25651  -1.25457  -1.25263  -1.25138  -1.24591
 Alpha  occ. eigenvalues --   -1.24398  -1.24323  -1.24278  -1.24134  -1.24006
 Alpha  occ. eigenvalues --   -1.08661  -0.99067  -0.98126  -0.97850  -0.97222
 Alpha  occ. eigenvalues --   -0.91297  -0.91076  -0.90947  -0.90405  -0.88011
 Alpha  occ. eigenvalues --   -0.85315  -0.83982  -0.83114  -0.81221  -0.80118
 Alpha  occ. eigenvalues --   -0.79887  -0.78869  -0.78821  -0.78658  -0.78457
 Alpha  occ. eigenvalues --   -0.78345  -0.77689  -0.77273  -0.75798  -0.75029
 Alpha  occ. eigenvalues --   -0.74681  -0.73572  -0.73209  -0.71825  -0.69536
 Alpha  occ. eigenvalues --   -0.68734  -0.67385  -0.66845  -0.66677  -0.66548
 Alpha  occ. eigenvalues --   -0.66241  -0.65921  -0.62561  -0.62229  -0.60852
 Alpha  occ. eigenvalues --   -0.60599  -0.60052  -0.59852  -0.59635  -0.59504
 Alpha  occ. eigenvalues --   -0.59416  -0.59333  -0.59128  -0.58875  -0.58383
 Alpha  occ. eigenvalues --   -0.58083  -0.57708  -0.57211  -0.56997  -0.56253
 Alpha  occ. eigenvalues --   -0.55759  -0.55638  -0.55342  -0.55011  -0.54820
 Alpha  occ. eigenvalues --   -0.54700  -0.54532  -0.54332  -0.54206  -0.54065
 Alpha  occ. eigenvalues --   -0.53807  -0.52993  -0.52747  -0.52463  -0.52396
 Alpha  occ. eigenvalues --   -0.52248  -0.52149  -0.52000  -0.51936  -0.50275
 Alpha  occ. eigenvalues --   -0.49869  -0.49735  -0.49552  -0.49535  -0.48813
 Alpha  occ. eigenvalues --   -0.48559  -0.48478  -0.48043  -0.47384  -0.46938
 Alpha  occ. eigenvalues --   -0.46742  -0.46618  -0.46521  -0.46378  -0.46321
 Alpha  occ. eigenvalues --   -0.46053  -0.45840  -0.45217  -0.44579  -0.44407
 Alpha  occ. eigenvalues --   -0.44279  -0.44252  -0.44184  -0.44145  -0.44054
 Alpha  occ. eigenvalues --   -0.43958  -0.43925  -0.43735  -0.43644  -0.43480
 Alpha  occ. eigenvalues --   -0.42820  -0.42772  -0.42029  -0.41790  -0.41749
 Alpha  occ. eigenvalues --   -0.41716  -0.41565  -0.41443  -0.41299  -0.41033
 Alpha  occ. eigenvalues --   -0.40759  -0.40182  -0.39946  -0.39824  -0.39633
 Alpha  occ. eigenvalues --   -0.39279  -0.39080  -0.39029  -0.38769  -0.38611
 Alpha  occ. eigenvalues --   -0.38551  -0.38514  -0.38426  -0.38253  -0.36782
 Alpha  occ. eigenvalues --   -0.36404  -0.35882  -0.35772  -0.35404  -0.34619
 Alpha  occ. eigenvalues --   -0.34372  -0.33964  -0.32964  -0.31398  -0.31142
 Alpha  occ. eigenvalues --   -0.30130  -0.30024  -0.28565  -0.28340  -0.27610
 Alpha  occ. eigenvalues --   -0.27393  -0.27268  -0.27062  -0.26901  -0.26305
 Alpha  occ. eigenvalues --   -0.26111  -0.25980  -0.25415  -0.25077  -0.25013
 Alpha  occ. eigenvalues --   -0.23960  -0.22851  -0.22051  -0.20901  -0.20599
 Alpha virt. eigenvalues --   -0.10305  -0.09563  -0.05470  -0.03795  -0.03607
 Alpha virt. eigenvalues --   -0.03281  -0.03253  -0.02342  -0.02146  -0.02008
 Alpha virt. eigenvalues --   -0.01734  -0.01287   0.00497   0.00677   0.00915

 Mulliken charges:
               1
     1  C    0.281951
     2  C    0.317627
     3  C   -0.106070
     4  C    0.312912
     5  C    0.305895
     6  C    0.087218
     7  C    0.289456
     8  C    0.317914
     9  C   -0.111056
    10  C    0.316126
    11  C   -0.155540
    12  C    0.315017
    13  H    0.111314
    14  H    0.101934
    15  H    0.102078
    16  N   -0.742061
    17  N   -0.743661
    18  N   -0.730081
    19  N   -0.730552
    20  C   -0.110945
    21  H    0.101980
    22  C   -0.132987
    23  H    0.108815
    24  C    0.097984
    25  C   -0.105403
    26  H    0.102888
    27  C    0.214048
    28  C    0.009871
    29  C    0.013418
    30  C    0.000943
    31  C   -0.258860
    32  C    0.351086
    33  C    0.352823
    34  C    0.275227
    35  C    0.275466
    36  C    0.289524
    37  C   -0.254661
    38  C    0.350925
    39  C    0.349866
    40  C    0.274995
    41  C    0.274832
    42  C    0.289136
    43  C   -0.262604
    44  C    0.353081
    45  C    0.356273
    46  C    0.275050
    47  C    0.276142
    48  C    0.289718
    49  C   -0.247333
    50  C   -0.066904
    51  H    0.093033
    52  C   -0.353299
    53  C   -0.050636
    54  H    0.119845
    55  F   -0.283902
    56  F   -0.285563
    57  F   -0.281849
    58  F   -0.285616
    59  F   -0.283937
    60  F   -0.283773
    61  F   -0.285804
    62  F   -0.282158
    63  F   -0.285974
    64  F   -0.284684
    65  F   -0.284567
    66  F   -0.286200
    67  F   -0.282339
    68  F   -0.285514
    69  F   -0.282850
    70  H    0.109916
    71  H    0.094425
    72  C   -0.063239
    73  C   -0.013204
    74  C   -0.287091
    75  H    0.127418
    76  S    0.248668
    77  S    0.282049
    78  C   -0.283144
    79  H    0.139635
    80  O   -0.524964
    81  H    0.333576
    82  Pt   0.906933
 Sum of Mulliken charges =   0.00000

 Dipole moment (field-independent basis, Debye):
    X=              1.8215    Y=             -4.1110    Z=             -1.1143  Tot=              4.6324
 Quadrupole moment (field-independent basis, Debye-Ang):
   XX=           -405.9542   YY=           -358.8038   ZZ=           -418.7705
   XY=            -10.6735   XZ=              1.8796   YZ=             12.6084

 Normal termination of Gaussian 16 at Sat Sep  3 19:36:10 2022.
