 Gaussian 16, Revision C.01,
 Gaussian 16:  ES64L-G16RevC.01  3-Jul-2019

 ----------------------------------------------------
 # opt b3lyp/genecp geom=connectivity scf=maxcyc=1000
 ----------------------------------------------------

 -----
 title
 -----
 Symbolic Z-matrix:
 Charge =  0 Multiplicity = 1

 SCF Done:  E(RB3LYP) =  -4517.88118062     A.U. after   22 cycles
 SCF Done:  E(RB3LYP) =  -4517.97379929     A.U. after   18 cycles
 SCF Done:  E(RB3LYP) =  -4517.97050272     A.U. after   20 cycles
 SCF Done:  E(RB3LYP) =  -4518.06227635     A.U. after   18 cycles
 SCF Done:  E(RB3LYP) =  -4518.08331261     A.U. after   19 cycles
 SCF Done:  E(RB3LYP) =  -4518.08843668     A.U. after   18 cycles
 SCF Done:  E(RB3LYP) =  -4518.09075740     A.U. after   18 cycles
 SCF Done:  E(RB3LYP) =  -4518.09250180     A.U. after   18 cycles
 SCF Done:  E(RB3LYP) =  -4518.09422769     A.U. after   16 cycles
 SCF Done:  E(RB3LYP) =  -4518.09426856     A.U. after   17 cycles
 SCF Done:  E(RB3LYP) =  -4518.10624933     A.U. after   15 cycles
 SCF Done:  E(RB3LYP) =  -4518.10625372     A.U. after   14 cycles
 SCF Done:  E(RB3LYP) =  -4518.10625627     A.U. after   14 cycles
 SCF Done:  E(RB3LYP) =  -4518.10625966     A.U. after   14 cycles
 SCF Done:  E(RB3LYP) =  -4518.10626171     A.U. after   14 cycles
 SCF Done:  E(RB3LYP) =  -4518.10626211     A.U. after    9 cycles
 SCF Done:  E(RB3LYP) =  -4518.10626231     A.U. after   11 cycles
 SCF Done:  E(RB3LYP) =  -4518.10626239     A.U. after    8 cycles
 SCF Done:  E(RB3LYP) =  -4518.10626243     A.U. after    7 cycles
 SCF Done:  E(RB3LYP) =  -4518.10626245     A.U. after    8 cycles
 Optimization completed.
    -- Stationary point found.

                         Standard orientation:
 ---------------------------------------------------------------------
 Center     Atomic      Atomic             Coordinates (Angstroms)
 Number     Number       Type             X           Y           Z
 ---------------------------------------------------------------------
      1          6           0       -1.274007   -2.646948   -0.376221
      2          6           0        1.290702    2.752800   -0.125513
      3          6           0        3.423976    2.445594    0.519707
      4          6           0        2.728354    1.184467    0.412766
      5          6           0        2.680500   -1.241690    0.140105
      6          6           0        2.453542   -3.350671   -0.657064
      7          6           0        1.182153   -2.649213   -0.621737
      8          6           0       -1.139008    2.810571   -0.296962
      9          6           0       -2.398483    3.518844   -0.279219
     10          6           0       -2.728487   -1.110115    0.205755
     11          6           0       -3.432168   -2.349215    0.173439
     12          6           0       -2.696450    1.334587    0.164021
     13          1           0       -4.478904   -2.486566    0.400393
     14          1           0       -2.520971    4.575113   -0.465623
     15          1           0        4.454484    2.564944    0.818738
     16          7           0        1.349812   -1.357844   -0.162340
     17          7           0       -1.404261   -1.302923   -0.099260
     18          7           0        1.412409    1.397254    0.043835
     19          7           0       -1.338849    1.472995   -0.054847
     20          6           0        2.550377    3.409213    0.139651
     21          1           0        2.718844    4.474254    0.079673
     22          6           0        3.361122   -2.465696   -0.128010
     23          1           0        4.421294   -2.633937   -0.012378
     24          6           0       -2.541227   -3.324424   -0.200555
     25          6           0       -3.352349    2.616186    0.053022
     26          1           0       -4.409603    2.787908    0.189153
     27          6           0       -0.070938   -3.249466   -0.781626
     28          6           0       -3.355287    0.136025    0.376130
     29          6           0        3.333002   -0.056246    0.522803
     30          6           0        0.103990    3.435778   -0.393534
     31          6           0        4.759483   -0.149194    0.948985
     32          6           0        5.814768    0.269544    0.131259
     33          6           0        5.097147   -0.694367    2.192996
     34          6           0        7.144964    0.166872    0.532838
     35          6           0        6.419573   -0.811432    2.614047
     36          6           0        7.446900   -0.377405    1.779112
     37          6           0        0.172712    4.899918   -0.672069
     38          6           0        0.631297    5.372222   -1.907129
     39          6           0       -0.192181    5.859528    0.278660
     40          6           0        0.719123    6.733267   -2.191514
     41          6           0       -0.118273    7.225534    0.015747
     42          6           0        0.341259    7.662419   -1.224872
     43          6           0       -4.813779    0.151055    0.695526
     44          6           0       -5.784547    0.401632   -0.279510
     45          6           0       -5.266037   -0.105749    1.994103
     46          6           0       -7.145314    0.408363    0.019292
     47          6           0       -6.621488   -0.109616    2.316006
     48          6           0       -7.563489    0.149833    1.322881
     49         28           0        0.003958    0.055145   -0.071940
     50          6           0       -2.872229   -4.746209   -0.351570
     51          6           0       -2.967364   -7.078070   -0.093226
     52          1           0       -1.433001   -5.802876    0.878837
     53          6           0        2.825081   -4.704300   -1.075813
     54          6           0        3.969535   -6.753761   -1.070246
     55          1           0        3.936586   -5.358150    0.657255
     56          9           0        4.133121   -1.118829    3.020119
     57          9           0        6.708300   -1.332133    3.811535
     58          9           0        8.717996   -0.482303    2.172712
     59          9           0        8.130876    0.578427   -0.271538
     60          9           0        5.562445    0.786840   -1.078488
     61          9           0        0.999647    4.505764   -2.859056
     62          9           0        1.158148    7.152073   -3.383086
     63          9           0        0.419021    8.969078   -1.486459
     64          9           0       -0.476067    8.117396    0.946227
     65          9           0       -0.629373    5.474460    1.485551
     66          9           0       -5.415784    0.648600   -1.543701
     67          9           0       -8.049674    0.654299   -0.934817
     68          9           0       -8.864826    0.151360    1.619819
     69          9           0       -7.022526   -0.356046    3.567512
     70          9           0       -4.384928   -0.357645    2.970483
     71          1           0        4.573449   -7.553251   -0.656417
     72          1           0       -2.655016   -8.049578    0.271627
     73          6           0        3.623108   -5.569562   -0.358953
     74          6           0       -2.295547   -5.861252    0.224383
     75          6           0       -4.056306   -6.887397   -0.899173
     76          1           0       -4.736765   -7.630383   -1.291914
     77         16           0       -4.274120   -5.216664   -1.296576
     78         16           0        2.513356   -5.358535   -2.670447
     79          6           0        3.449449   -6.775546   -2.336054
     80          1           0        3.546192   -7.547283   -3.087511
     81          8           0       -0.055226   -4.504823   -1.270575
     82          1           0       -0.947523   -4.891196   -1.269542
 ---------------------------------------------------------------------

 The electronic state is 1-A.
 Alpha  occ. eigenvalues --  -88.90926 -88.88755 -24.73899 -24.73819 -24.73765
 Alpha  occ. eigenvalues --  -24.73479 -24.73438 -24.73369 -24.73368 -24.73347
 Alpha  occ. eigenvalues --  -24.73296 -24.73277 -24.73207 -24.73185 -24.73166
 Alpha  occ. eigenvalues --  -24.73139 -24.73013 -19.19352 -14.36593 -14.36288
 Alpha  occ. eigenvalues --  -14.35882 -14.35879 -10.31158 -10.31067 -10.31011
 Alpha  occ. eigenvalues --  -10.30738 -10.30713 -10.30646 -10.30623 -10.30571
 Alpha  occ. eigenvalues --  -10.30555 -10.30533 -10.30531 -10.30453 -10.30436
 Alpha  occ. eigenvalues --  -10.30406 -10.30365 -10.27935 -10.24252 -10.23876
 Alpha  occ. eigenvalues --  -10.23806 -10.23804 -10.23767 -10.23731 -10.23706
 Alpha  occ. eigenvalues --  -10.23520 -10.23520 -10.23499 -10.23348 -10.23295
 Alpha  occ. eigenvalues --  -10.22886 -10.22426 -10.22361 -10.21957 -10.21905
 Alpha  occ. eigenvalues --  -10.21867 -10.21179 -10.21083 -10.20988 -10.20839
 Alpha  occ. eigenvalues --  -10.19918 -10.19900 -10.19880 -10.19759 -10.19759
 Alpha  occ. eigenvalues --  -10.19116 -10.18931 -10.18889  -7.98458  -7.96285
 Alpha  occ. eigenvalues --   -5.94789  -5.94414  -5.94094  -5.92621  -5.92247
 Alpha  occ. eigenvalues --   -5.91910  -4.04859  -2.66643  -2.66625  -2.60834
 Alpha  occ. eigenvalues --   -1.26622  -1.26536  -1.26478  -1.25845  -1.25757
 Alpha  occ. eigenvalues --   -1.25692  -1.25328  -1.25242  -1.25173  -1.24469
 Alpha  occ. eigenvalues --   -1.24374  -1.24312  -1.24197  -1.24107  -1.24040
 Alpha  occ. eigenvalues --   -1.08761  -0.98397  -0.97490  -0.97248  -0.96252
 Alpha  occ. eigenvalues --   -0.91143  -0.91028  -0.90903  -0.90074  -0.87959
 Alpha  occ. eigenvalues --   -0.85128  -0.83754  -0.82859  -0.80804  -0.79917
 Alpha  occ. eigenvalues --   -0.79744  -0.78652  -0.78532  -0.78442  -0.78393
 Alpha  occ. eigenvalues --   -0.78267  -0.77489  -0.77098  -0.75470  -0.74673
 Alpha  occ. eigenvalues --   -0.74379  -0.73297  -0.73028  -0.71645  -0.69213
 Alpha  occ. eigenvalues --   -0.68458  -0.67251  -0.66722  -0.66626  -0.66578
 Alpha  occ. eigenvalues --   -0.66067  -0.65783  -0.62233  -0.61851  -0.60571
 Alpha  occ. eigenvalues --   -0.60328  -0.59875  -0.59733  -0.59509  -0.59476
 Alpha  occ. eigenvalues --   -0.59403  -0.59098  -0.58885  -0.58277  -0.58153
 Alpha  occ. eigenvalues --   -0.57774  -0.57651  -0.56794  -0.56650  -0.55806
 Alpha  occ. eigenvalues --   -0.55118  -0.54910  -0.54889  -0.54793  -0.54730
 Alpha  occ. eigenvalues --   -0.54572  -0.54318  -0.54225  -0.53790  -0.53595
 Alpha  occ. eigenvalues --   -0.53496  -0.52781  -0.52631  -0.52446  -0.52268
 Alpha  occ. eigenvalues --   -0.52137  -0.52102  -0.51895  -0.51710  -0.49992
 Alpha  occ. eigenvalues --   -0.49744  -0.49636  -0.49605  -0.48925  -0.48686
 Alpha  occ. eigenvalues --   -0.48546  -0.48230  -0.47666  -0.46979  -0.46822
 Alpha  occ. eigenvalues --   -0.46716  -0.46643  -0.46389  -0.46350  -0.46254
 Alpha  occ. eigenvalues --   -0.46076  -0.45282  -0.44914  -0.44380  -0.44265
 Alpha  occ. eigenvalues --   -0.44186  -0.44123  -0.44029  -0.43931  -0.43883
 Alpha  occ. eigenvalues --   -0.43858  -0.43162  -0.42900  -0.42799  -0.42460
 Alpha  occ. eigenvalues --   -0.41830  -0.41649  -0.41568  -0.41528  -0.41502
 Alpha  occ. eigenvalues --   -0.41474  -0.41283  -0.41071  -0.40695  -0.40416
 Alpha  occ. eigenvalues --   -0.40040  -0.39861  -0.39738  -0.39495  -0.39355
 Alpha  occ. eigenvalues --   -0.39080  -0.38995  -0.38671  -0.38619  -0.38563
 Alpha  occ. eigenvalues --   -0.38492  -0.38356  -0.38160  -0.37167  -0.36151
 Alpha  occ. eigenvalues --   -0.35846  -0.35793  -0.35686  -0.35312  -0.34087
 Alpha  occ. eigenvalues --   -0.33905  -0.33644  -0.32750  -0.32573  -0.30252
 Alpha  occ. eigenvalues --   -0.30086  -0.29800  -0.28159  -0.28046  -0.27249
 Alpha  occ. eigenvalues --   -0.27228  -0.27060  -0.26855  -0.26756  -0.26175
 Alpha  occ. eigenvalues --   -0.26081  -0.26021  -0.25514  -0.25357  -0.24893
 Alpha  occ. eigenvalues --   -0.24763  -0.23644  -0.22313  -0.20794  -0.20124
 Alpha virt. eigenvalues --   -0.10184  -0.09427  -0.07350  -0.05238  -0.03734
 Alpha virt. eigenvalues --   -0.03403  -0.03273  -0.03016  -0.02223  -0.02094
 Alpha virt. eigenvalues --   -0.02046  -0.00941   0.00408   0.00627   0.00832

 Mulliken charges:
               1
     1  C    0.274277
     2  C    0.302530
     3  C   -0.101686
     4  C    0.294187
     5  C    0.285961
     6  C    0.069233
     7  C    0.259853
     8  C    0.302452
     9  C   -0.110675
    10  C    0.290264
    11  C   -0.139764
    12  C    0.295291
    13  H    0.107983
    14  H    0.101985
    15  H    0.102739
    16  N   -0.618783
    17  N   -0.616622
    18  N   -0.609419
    19  N   -0.611503
    20  C   -0.109965
    21  H    0.101405
    22  C   -0.131230
    23  H    0.101485
    24  C    0.101935
    25  C   -0.101797
    26  H    0.101963
    27  C    0.208387
    28  C    0.009703
    29  C    0.009678
    30  C   -0.003219
    31  C   -0.236653
    32  C    0.346714
    33  C    0.349525
    34  C    0.275459
    35  C    0.275131
    36  C    0.289383
    37  C   -0.241220
    38  C    0.349643
    39  C    0.345944
    40  C    0.275569
    41  C    0.274404
    42  C    0.289014
    43  C   -0.249736
    44  C    0.349623
    45  C    0.352174
    46  C    0.274755
    47  C    0.275689
    48  C    0.289653
    49  Ni   0.531750
    50  C   -0.340933
    51  C   -0.051616
    52  H    0.124444
    53  C   -0.218933
    54  C   -0.060689
    55  H    0.095683
    56  F   -0.283730
    57  F   -0.286336
    58  F   -0.282259
    59  F   -0.286039
    60  F   -0.285601
    61  F   -0.282357
    62  F   -0.285784
    63  F   -0.282427
    64  F   -0.286688
    65  F   -0.286759
    66  F   -0.285804
    67  F   -0.286248
    68  F   -0.282270
    69  F   -0.285672
    70  F   -0.282809
    71  H    0.095865
    72  H    0.109920
    73  C   -0.054997
    74  C   -0.066554
    75  C   -0.283932
    76  H    0.138024
    77  S    0.273310
    78  S    0.271465
    79  C   -0.289033
    80  H    0.126425
    81  O   -0.514020
    82  H    0.332887
 Sum of Mulliken charges =   0.00000

 Dipole moment (field-independent basis, Debye):
    X=             -1.1123    Y=             -4.0373    Z=              0.1433  Tot=              4.1902
 Quadrupole moment (field-independent basis, Debye-Ang):
   XX=           -394.4749   YY=           -352.9534   ZZ=           -408.2948
   XY=              7.3293   XZ=              6.8677   YZ=              7.2168

 Normal termination of Gaussian 16 at Tue Oct 26 19:56:57 2021.
