 Gaussian 16, Revision C.01,
 Gaussian 16:  ES64L-G16RevC.01  3-Jul-2019

 ----------------------------------------------------
 # opt b3lyp/genecp geom=connectivity scf=maxcyc=1000
 ----------------------------------------------------

 -----
 title
 -----
 Symbolic Z-matrix:
 Charge =  0 Multiplicity = 1

 SCF Done:  E(RB3LYP) =  -4517.90326493     A.U. after   22 cycles
 SCF Done:  E(RB3LYP) =  -4517.98392920     A.U. after   18 cycles
 SCF Done:  E(RB3LYP) =  -4517.98641162     A.U. after   20 cycles
 SCF Done:  E(RB3LYP) =  -4518.06732805     A.U. after   20 cycles
 SCF Done:  E(RB3LYP) =  -4518.08257219     A.U. after   18 cycles
 SCF Done:  E(RB3LYP) =  -4518.08683533     A.U. after   18 cycles
 SCF Done:  E(RB3LYP) =  -4518.08971209     A.U. after   18 cycles
 SCF Done:  E(RB3LYP) =  -4518.09178150     A.U. after   18 cycles
 SCF Done:  E(RB3LYP) =  -4518.09308106     A.U. after   15 cycles
 SCF Done:  E(RB3LYP) =  -4518.09262445     A.U. after   20 cycles
 SCF Done:  E(RB3LYP) =  -4518.10727167     A.U. after   18 cycles
 SCF Done:  E(RB3LYP) =  -4518.10732475     A.U. after   15 cycles
 SCF Done:  E(RB3LYP) =  -4518.10733239     A.U. after   12 cycles
 SCF Done:  E(RB3LYP) =  -4518.10734472     A.U. after   14 cycles
 SCF Done:  E(RB3LYP) =  -4518.10735056     A.U. after   14 cycles
 SCF Done:  E(RB3LYP) =  -4518.10735209     A.U. after   11 cycles
 SCF Done:  E(RB3LYP) =  -4518.10735232     A.U. after    9 cycles
 SCF Done:  E(RB3LYP) =  -4518.10735245     A.U. after    9 cycles
 SCF Done:  E(RB3LYP) =  -4518.10735248     A.U. after    7 cycles
 SCF Done:  E(RB3LYP) =  -4518.10735249     A.U. after    7 cycles
 Optimization completed.
    -- Stationary point found.

                         Standard orientation:
 ---------------------------------------------------------------------
 Center     Atomic      Atomic             Coordinates (Angstroms)
 Number     Number       Type             X           Y           Z
 ---------------------------------------------------------------------
      1          6           0       -1.128216   -2.695839   -0.514100
      2          6           0        1.083642    2.835925   -0.166187
      3          6           0        3.237162    2.658241    0.461870
      4          6           0        2.619482    1.356677    0.355581
      5          6           0        2.721926   -1.065924    0.062823
      6          6           0        2.640565   -3.168791   -0.781773
      7          6           0        1.323771   -2.546859   -0.755304
      8          6           0       -1.347545    2.739688   -0.285411
      9          6           0       -2.648614    3.364725   -0.217133
     10          6           0       -2.665801   -1.283189    0.164092
     11          6           0       -3.288645   -2.562915    0.091680
     12          6           0       -2.793375    1.158369    0.193441
     13          1           0       -4.318641   -2.778559    0.333959
     14          1           0       -2.844410    4.413866   -0.379776
     15          1           0        4.260494    2.839703    0.754324
     16          7           0        1.405794   -1.258665   -0.262220
     17          7           0       -1.338836   -1.378011   -0.174252
     18          7           0        1.291867    1.489948   -0.006306
     19          7           0       -1.454645    1.388810   -0.061699
     20          6           0        2.303526    3.567514    0.090242
     21          1           0        2.406028    4.641106    0.032892
     22          6           0        3.479843   -2.239337   -0.212546
     23          1           0        4.545903   -2.340645   -0.074458
     24          6           0       -2.345792   -3.460375   -0.346050
     25          6           0       -3.532220    2.397120    0.127907
     26          1           0       -4.593439    2.498750    0.299085
     27          6           0        0.105965   -3.205067   -0.958713
     28          6           0       -3.366888   -0.086170    0.390758
     29          6           0        3.297176    0.154147    0.463006
     30          6           0       -0.148928    3.444103   -0.405774
     31          6           0        4.723881    0.145877    0.898895
     32          6           0        5.759008    0.616176    0.083741
     33          6           0        5.082700   -0.366849    2.150649
     34          6           0        7.090048    0.592799    0.494598
     35          6           0        6.406747   -0.404544    2.581298
     36          6           0        7.413491    0.078582    1.748262
     37          6           0       -0.179645    4.911941   -0.671085
     38          6           0        0.214402    5.422080   -1.913322
     39          6           0       -0.577682    5.839026    0.298410
     40          6           0        0.209043    6.788206   -2.186694
     41          6           0       -0.596669    7.209055    0.046954
     42          6           0       -0.199592    7.683952   -1.201235
     43          6           0       -4.813323   -0.176764    0.749291
     44          6           0       -5.826908    0.046124   -0.188247
     45          6           0       -5.209408   -0.511128    2.048662
     46          6           0       -7.175771   -0.046898    0.147729
     47          6           0       -6.551631   -0.615128    2.407121
     48          6           0       -7.537524   -0.380616    1.451100
     49         28           0       -0.025153    0.063672   -0.131456
     50          6           0       -2.585451   -4.893602   -0.551744
     51          6           0       -2.518068   -7.235376   -0.391784
     52          1           0       -1.059864   -5.899381    0.615793
     53          6           0        3.085472   -4.483001   -1.238996
     54          6           0        3.556251   -6.390585   -2.517278
     55          1           0        2.059730   -4.864335   -3.100938
     56          9           0        4.138106   -0.836141    2.975549
     57          9           0        6.716282   -0.895377    3.785932
     58          9           0        8.685760    0.050042    2.150964
     59          9           0        8.056710    1.052329   -0.307361
     60          9           0        5.485111    1.108093   -1.132133
     61          9           0        0.609764    4.588146   -2.883379
     62          9           0        0.588147    7.243317   -3.385537
     63          9           0       -0.211062    8.995001   -1.452014
     64          9           0       -0.983989    8.069158    0.995337
     65          9           0       -0.956936    5.417487    1.512692
     66          9           0       -5.512879    0.362724   -1.451792
     67          9           0       -8.122027    0.174714   -0.771101
     68          9           0       -8.826865   -0.474939    1.783275
     69          9           0       -6.898527   -0.933700    3.658487
     70          9           0       -4.285395   -0.741393    2.989998
     71          1           0        3.460173   -7.071468   -3.355540
     72          1           0       -2.135394   -8.197484   -0.071747
     73          6           0        2.794890   -5.195942   -2.380390
     74          6           0       -1.925592   -5.989539   -0.030949
     75          6           0       -3.629647   -7.086298   -1.175191
     76          1           0       -4.264905   -7.857093   -1.589492
     77         16           0       -3.966420   -5.419137   -1.498635
     78         16           0        4.328164   -5.316918   -0.314425
     79          6           0        4.426475   -6.592151   -1.479523
     80          1           0        5.107554   -7.417558   -1.324696
     81          8           0        0.177039   -4.422408   -1.533297
     82          1           0       -0.687409   -4.867946   -1.504296
 ---------------------------------------------------------------------

 The electronic state is 1-A.
 Alpha  occ. eigenvalues --  -88.91000 -88.89075 -24.73908 -24.73760 -24.73711
 Alpha  occ. eigenvalues --  -24.73492 -24.73442 -24.73342 -24.73315 -24.73281
 Alpha  occ. eigenvalues --  -24.73276 -24.73237 -24.73208 -24.73160 -24.73112
 Alpha  occ. eigenvalues --  -24.73013 -24.73010 -19.19467 -14.36592 -14.36261
 Alpha  occ. eigenvalues --  -14.35863 -14.35830 -10.31166 -10.31006 -10.30959
 Alpha  occ. eigenvalues --  -10.30750 -10.30720 -10.30565 -10.30564 -10.30552
 Alpha  occ. eigenvalues --  -10.30537 -10.30529 -10.30513 -10.30401 -10.30361
 Alpha  occ. eigenvalues --  -10.30354 -10.30321 -10.28019 -10.24318 -10.23889
 Alpha  occ. eigenvalues --  -10.23838 -10.23758 -10.23726 -10.23703 -10.23700
 Alpha  occ. eigenvalues --  -10.23527 -10.23510 -10.23509 -10.23487 -10.23299
 Alpha  occ. eigenvalues --  -10.22957 -10.22459 -10.22312 -10.22121 -10.21900
 Alpha  occ. eigenvalues --  -10.21869 -10.21309 -10.21249 -10.21243 -10.20909
 Alpha  occ. eigenvalues --  -10.19910 -10.19909 -10.19892 -10.19766 -10.19746
 Alpha  occ. eigenvalues --  -10.19115 -10.19019 -10.18879  -7.98531  -7.96635
 Alpha  occ. eigenvalues --   -5.94862  -5.94487  -5.94167  -5.92965  -5.92597
 Alpha  occ. eigenvalues --   -5.92264  -4.04819  -2.66604  -2.66581  -2.60801
 Alpha  occ. eigenvalues --   -1.26630  -1.26474  -1.26428  -1.25854  -1.25688
 Alpha  occ. eigenvalues --   -1.25650  -1.25337  -1.25169  -1.25136  -1.24478
 Alpha  occ. eigenvalues --   -1.24308  -1.24272  -1.24205  -1.24037  -1.24000
 Alpha  occ. eigenvalues --   -1.08843  -0.98412  -0.97500  -0.97246  -0.96248
 Alpha  occ. eigenvalues --   -0.91146  -0.90961  -0.90869  -0.90142  -0.88175
 Alpha  occ. eigenvalues --   -0.85111  -0.83724  -0.82840  -0.80825  -0.79932
 Alpha  occ. eigenvalues --   -0.79778  -0.78633  -0.78537  -0.78393  -0.78335
 Alpha  occ. eigenvalues --   -0.78246  -0.77485  -0.77068  -0.75533  -0.74679
 Alpha  occ. eigenvalues --   -0.74398  -0.73479  -0.73110  -0.71720  -0.69186
 Alpha  occ. eigenvalues --   -0.68461  -0.67216  -0.66729  -0.66572  -0.66530
 Alpha  occ. eigenvalues --   -0.66066  -0.65736  -0.62240  -0.61916  -0.60600
 Alpha  occ. eigenvalues --   -0.60338  -0.59859  -0.59736  -0.59509  -0.59415
 Alpha  occ. eigenvalues --   -0.59363  -0.59088  -0.58887  -0.58296  -0.58143
 Alpha  occ. eigenvalues --   -0.57815  -0.57623  -0.56879  -0.56710  -0.55868
 Alpha  occ. eigenvalues --   -0.55121  -0.54898  -0.54891  -0.54852  -0.54726
 Alpha  occ. eigenvalues --   -0.54689  -0.54299  -0.54143  -0.53836  -0.53608
 Alpha  occ. eigenvalues --   -0.53473  -0.52763  -0.52615  -0.52367  -0.52274
 Alpha  occ. eigenvalues --   -0.52134  -0.52107  -0.51925  -0.51677  -0.50003
 Alpha  occ. eigenvalues --   -0.49750  -0.49603  -0.49534  -0.48921  -0.48686
 Alpha  occ. eigenvalues --   -0.48453  -0.48240  -0.47541  -0.46957  -0.46830
 Alpha  occ. eigenvalues --   -0.46641  -0.46615  -0.46371  -0.46331  -0.46246
 Alpha  occ. eigenvalues --   -0.46102  -0.45243  -0.44907  -0.44373  -0.44275
 Alpha  occ. eigenvalues --   -0.44127  -0.44085  -0.44037  -0.43895  -0.43869
 Alpha  occ. eigenvalues --   -0.43813  -0.43184  -0.42908  -0.42807  -0.42488
 Alpha  occ. eigenvalues --   -0.41910  -0.41773  -0.41657  -0.41561  -0.41474
 Alpha  occ. eigenvalues --   -0.41442  -0.41424  -0.41147  -0.40860  -0.40257
 Alpha  occ. eigenvalues --   -0.40042  -0.39914  -0.39700  -0.39550  -0.39364
 Alpha  occ. eigenvalues --   -0.39090  -0.38751  -0.38646  -0.38586  -0.38503
 Alpha  occ. eigenvalues --   -0.38457  -0.38381  -0.38170  -0.37404  -0.36239
 Alpha  occ. eigenvalues --   -0.35959  -0.35797  -0.35646  -0.35324  -0.34301
 Alpha  occ. eigenvalues --   -0.33912  -0.33572  -0.32743  -0.32550  -0.30240
 Alpha  occ. eigenvalues --   -0.30082  -0.29902  -0.28222  -0.28098  -0.27351
 Alpha  occ. eigenvalues --   -0.27263  -0.27090  -0.26894  -0.26784  -0.26184
 Alpha  occ. eigenvalues --   -0.26019  -0.25974  -0.25486  -0.25438  -0.25253
 Alpha  occ. eigenvalues --   -0.24820  -0.23667  -0.22190  -0.20691  -0.20070
 Alpha virt. eigenvalues --   -0.10176  -0.09441  -0.07230  -0.05300  -0.03822
 Alpha virt. eigenvalues --   -0.03363  -0.03298  -0.03066  -0.02231  -0.02042
 Alpha virt. eigenvalues --   -0.01991  -0.01114   0.00433   0.00637   0.00872

 Mulliken charges:
               1
     1  C    0.272038
     2  C    0.302247
     3  C   -0.100985
     4  C    0.295041
     5  C    0.292207
     6  C    0.099980
     7  C    0.263769
     8  C    0.302120
     9  C   -0.110900
    10  C    0.288303
    11  C   -0.138517
    12  C    0.294531
    13  H    0.107787
    14  H    0.101794
    15  H    0.102972
    16  N   -0.620324
    17  N   -0.614833
    18  N   -0.608888
    19  N   -0.610235
    20  C   -0.110289
    21  H    0.101413
    22  C   -0.154282
    23  H    0.109731
    24  C    0.100317
    25  C   -0.102073
    26  H    0.101863
    27  C    0.203502
    28  C    0.009823
    29  C    0.007330
    30  C   -0.004682
    31  C   -0.238986
    32  C    0.346965
    33  C    0.351320
    34  C    0.275234
    35  C    0.276159
    36  C    0.289594
    37  C   -0.239964
    38  C    0.349379
    39  C    0.345858
    40  C    0.275535
    41  C    0.274376
    42  C    0.289003
    43  C   -0.247489
    44  C    0.348954
    45  C    0.351816
    46  C    0.274715
    47  C    0.275763
    48  C    0.289636
    49  Ni   0.531866
    50  C   -0.342345
    51  C   -0.051950
    52  H    0.125868
    53  C   -0.248545
    54  C   -0.067900
    55  H    0.105200
    56  F   -0.282971
    57  F   -0.285891
    58  F   -0.282376
    59  F   -0.286386
    60  F   -0.286167
    61  F   -0.282487
    62  F   -0.285873
    63  F   -0.282460
    64  F   -0.286681
    65  F   -0.286791
    66  F   -0.286114
    67  F   -0.286330
    68  F   -0.282248
    69  F   -0.285585
    70  F   -0.282622
    71  H    0.097156
    72  H    0.110402
    73  C   -0.017686
    74  C   -0.067485
    75  C   -0.284100
    76  H    0.138091
    77  S    0.272726
    78  S    0.244979
    79  C   -0.286248
    80  H    0.128089
    81  O   -0.517906
    82  H    0.332142
 Sum of Mulliken charges =   0.00000

 Dipole moment (field-independent basis, Debye):
    X=             -1.2697    Y=             -4.1544    Z=             -0.9119  Tot=              4.4388
 Quadrupole moment (field-independent basis, Debye-Ang):
   XX=           -397.6220   YY=           -352.1776   ZZ=           -406.6070
   XY=              6.5014   XZ=              4.2315   YZ=             13.9595

 Normal termination of Gaussian 16 at Tue Oct 26 19:29:13 2021.
