 Gaussian 16, Revision C.01,
 Gaussian 16:  ES64L-G16RevC.01  3-Jul-2019

 ----------------------------------------------------
 # opt b3lyp/genecp geom=connectivity scf=maxcyc=1000
 ----------------------------------------------------

 -----
 title
 -----
 Symbolic Z-matrix:
 Charge =  0 Multiplicity = 1

 SCF Done:  E(RB3LYP) =  -4517.92036546     A.U. after   23 cycles
 SCF Done:  E(RB3LYP) =  -4517.99512677     A.U. after   15 cycles
 SCF Done:  E(RB3LYP) =  -4518.01001433     A.U. after   18 cycles
 SCF Done:  E(RB3LYP) =  -4518.07346993     A.U. after   17 cycles
 SCF Done:  E(RB3LYP) =  -4518.08654080     A.U. after   18 cycles
 SCF Done:  E(RB3LYP) =  -4518.08967539     A.U. after   16 cycles
 SCF Done:  E(RB3LYP) =  -4518.09138990     A.U. after   14 cycles
 SCF Done:  E(RB3LYP) =  -4518.09220823     A.U. after   15 cycles
 SCF Done:  E(RB3LYP) =  -4518.09332238     A.U. after   15 cycles
 SCF Done:  E(RB3LYP) =  -4518.09384711     A.U. after   15 cycles
 SCF Done:  E(RB3LYP) =  -4518.10723994     A.U. after   11 cycles
 SCF Done:  E(RB3LYP) =  -4518.10724497     A.U. after   13 cycles
 SCF Done:  E(RB3LYP) =  -4518.10725004     A.U. after   13 cycles
 SCF Done:  E(RB3LYP) =  -4518.10725257     A.U. after   12 cycles
 SCF Done:  E(RB3LYP) =  -4518.10725349     A.U. after   11 cycles
 SCF Done:  E(RB3LYP) =  -4518.10725441     A.U. after   11 cycles
 SCF Done:  E(RB3LYP) =  -4518.10725515     A.U. after   11 cycles
 SCF Done:  E(RB3LYP) =  -4518.10725535     A.U. after    8 cycles
 SCF Done:  E(RB3LYP) =  -4518.10725542     A.U. after    8 cycles
 SCF Done:  E(RB3LYP) =  -4518.10725544     A.U. after    7 cycles
 Optimization completed.
    -- Stationary point found.

                         Standard orientation:
 ---------------------------------------------------------------------
 Center     Atomic      Atomic             Coordinates (Angstroms)
 Number     Number       Type             X           Y           Z
 ---------------------------------------------------------------------
      1          6           0       -1.206427   -2.597641   -0.793473
      2          6           0        1.142743    2.821322   -0.275046
      3          6           0        3.315481    2.602798    0.268363
      4          6           0        2.656682    1.317814    0.242555
      5          6           0        2.680641   -1.121478    0.083543
      6          6           0        2.546288   -3.270230   -0.628824
      7          6           0        1.265074   -2.585670   -0.737476
      8          6           0       -1.292109    2.781639   -0.236867
      9          6           0       -2.566051    3.435511   -0.040130
     10          6           0       -2.687467   -1.212857    0.054148
     11          6           0       -3.367651   -2.442403   -0.185843
     12          6           0       -2.741210    1.217643    0.291676
     13          1           0       -4.417671   -2.626867   -0.013530
     14          1           0       -2.745224    4.494779   -0.147240
     15          1           0        4.354450    2.765083    0.513310
     16          7           0        1.375417   -1.279677   -0.304515
     17          7           0       -1.368515   -1.319695   -0.304498
     18          7           0        1.323628    1.475465   -0.082430
     19          7           0       -1.418272    1.427763   -0.049597
     20          6           0        2.393129    3.525215   -0.101086
     21          1           0        2.523281    4.592559   -0.202491
     22          6           0        3.394704   -2.343583   -0.069237
     23          1           0        4.443773   -2.485254    0.142815
     24          6           0       -2.472453   -3.301950   -0.773637
     25          6           0       -3.445674    2.477788    0.341549
     26          1           0       -4.486651    2.600077    0.600598
     27          6           0        0.042387   -3.179481   -1.077734
     28          6           0       -3.339712   -0.023583    0.429534
     29          6           0        3.293361    0.099979    0.415900
     30          6           0       -0.088431    3.457426   -0.441707
     31          6           0        4.718787    0.073337    0.857388
     32          6           0        5.769938    0.431545    0.007104
     33          6           0        5.057761   -0.339121    2.150620
     34          6           0        7.099349    0.394882    0.422106
     35          6           0        6.379846   -0.388743    2.586546
     36          6           0        7.403625   -0.018929    1.717071
     37          6           0       -0.103973    4.925617   -0.708299
     38          6           0        0.176557    5.422716   -1.985832
     39          6           0       -0.376199    5.864127    0.292828
     40          6           0        0.182355    6.788249   -2.262437
     41          6           0       -0.381814    7.233968    0.039527
     42          6           0       -0.099290    7.696101   -1.244145
     43          6           0       -4.762834   -0.113396    0.868855
     44          6           0       -5.827319    0.250103    0.037168
     45          6           0       -5.086459   -0.596463    2.141756
     46          6           0       -7.153921    0.153433    0.451508
     47          6           0       -6.405335   -0.706815    2.576464
     48          6           0       -7.442270   -0.328678    1.726370
     49         28           0       -0.021244    0.078165   -0.190266
     50          6           0       -2.794389   -4.652874   -1.249173
     51          6           0       -3.201412   -6.512534   -2.625093
     52          1           0       -2.338589   -4.604695   -3.368092
     53          6           0        2.959352   -4.634733   -0.955216
     54          6           0        3.456768   -6.648892   -2.046576
     55          1           0        2.108626   -5.102884   -2.883905
     56          9           0        4.096192   -0.698379    3.010330
     57          9           0        6.671377   -0.783058    3.830459
     58          9           0        8.674151   -0.059484    2.124452
     59          9           0        8.082217    0.746836   -0.413960
     60          9           0        5.512739    0.827186   -1.247062
     61          9           0        0.448629    4.576624   -2.987386
     62          9           0        0.451657    7.231356   -3.495042
     63          9           0       -0.099079    9.006743   -1.497510
     64          9           0       -0.648035    8.105658    1.018560
     65          9           0       -0.644630    5.453741    1.540054
     66          9           0       -5.586763    0.707959   -1.199194
     67          9           0       -8.149232    0.511353   -0.367143
     68          9           0       -8.709892   -0.427890    2.132369
     69          9           0       -6.681394   -1.168045    3.800672
     70          9           0       -4.112687   -0.966288    2.982936
     71          1           0        3.409454   -7.383692   -2.842465
     72          1           0       -3.214740   -7.081360   -3.547448
     73          6           0        2.748718   -5.414328   -2.070023
     74          6           0       -2.709527   -5.177610   -2.524801
     75          6           0       -3.667913   -6.994382   -1.432618
     76          1           0       -4.089293   -7.968144   -1.223758
     77         16           0       -3.503723   -5.830476   -0.161597
     78         16           0        4.058068   -5.455355    0.146840
     79          6           0        4.206362   -6.814439   -0.912878
     80          1           0        4.822632   -7.657387   -0.632203
     81          8           0        0.119982   -4.416170   -1.605261
     82          1           0       -0.758030   -4.836405   -1.642037
 ---------------------------------------------------------------------

 The electronic state is 1-A.
 Alpha  occ. eigenvalues --  -88.91198 -88.88871 -24.73924 -24.73752 -24.73640
 Alpha  occ. eigenvalues --  -24.73515 -24.73445 -24.73356 -24.73336 -24.73277
 Alpha  occ. eigenvalues --  -24.73222 -24.73204 -24.73164 -24.73151 -24.73051
 Alpha  occ. eigenvalues --  -24.73012 -24.72929 -19.19199 -14.36534 -14.36205
 Alpha  occ. eigenvalues --  -14.35820 -14.35762 -10.31180 -10.30998 -10.30886
 Alpha  occ. eigenvalues --  -10.30774 -10.30727 -10.30584 -10.30554 -10.30542
 Alpha  occ. eigenvalues --  -10.30523 -10.30480 -10.30441 -10.30396 -10.30357
 Alpha  occ. eigenvalues --  -10.30288 -10.30253 -10.27926 -10.24554 -10.23916
 Alpha  occ. eigenvalues --  -10.23831 -10.23744 -10.23706 -10.23686 -10.23627
 Alpha  occ. eigenvalues --  -10.23553 -10.23531 -10.23444 -10.23422 -10.23204
 Alpha  occ. eigenvalues --  -10.23154 -10.22457 -10.22289 -10.21955 -10.21936
 Alpha  occ. eigenvalues --  -10.21901 -10.21556 -10.21161 -10.21147 -10.21034
 Alpha  occ. eigenvalues --  -10.19960 -10.19910 -10.19865 -10.19763 -10.19730
 Alpha  occ. eigenvalues --  -10.18934 -10.18902 -10.18687  -7.98724  -7.96431
 Alpha  occ. eigenvalues --   -5.95054  -5.94677  -5.94363  -5.92761  -5.92392
 Alpha  occ. eigenvalues --   -5.92060  -4.04726  -2.66515  -2.66475  -2.60721
 Alpha  occ. eigenvalues --   -1.26647  -1.26467  -1.26358  -1.25871  -1.25683
 Alpha  occ. eigenvalues --   -1.25581  -1.25353  -1.25162  -1.25064  -1.24494
 Alpha  occ. eigenvalues --   -1.24303  -1.24216  -1.24205  -1.24033  -1.23930
 Alpha  occ. eigenvalues --   -1.08645  -0.98396  -0.97479  -0.97196  -0.96214
 Alpha  occ. eigenvalues --   -0.91151  -0.90937  -0.90825  -0.90372  -0.87983
 Alpha  occ. eigenvalues --   -0.85078  -0.83688  -0.82805  -0.80888  -0.79794
 Alpha  occ. eigenvalues --   -0.79690  -0.78610  -0.78541  -0.78377  -0.78278
 Alpha  occ. eigenvalues --   -0.78211  -0.77461  -0.77035  -0.75759  -0.74698
 Alpha  occ. eigenvalues --   -0.74405  -0.73357  -0.73076  -0.71593  -0.69160
 Alpha  occ. eigenvalues --   -0.68442  -0.67163  -0.66738  -0.66563  -0.66468
 Alpha  occ. eigenvalues --   -0.66060  -0.65686  -0.62278  -0.61847  -0.60527
 Alpha  occ. eigenvalues --   -0.60325  -0.59831  -0.59733  -0.59497  -0.59351
 Alpha  occ. eigenvalues --   -0.59333  -0.59067  -0.58876  -0.58264  -0.58177
 Alpha  occ. eigenvalues --   -0.57880  -0.57588  -0.56873  -0.56698  -0.55766
 Alpha  occ. eigenvalues --   -0.55129  -0.54909  -0.54900  -0.54811  -0.54724
 Alpha  occ. eigenvalues --   -0.54623  -0.54298  -0.54095  -0.53975  -0.53609
 Alpha  occ. eigenvalues --   -0.53447  -0.52757  -0.52609  -0.52328  -0.52254
 Alpha  occ. eigenvalues --   -0.52100  -0.51995  -0.51865  -0.51658  -0.49979
 Alpha  occ. eigenvalues --   -0.49765  -0.49600  -0.49466  -0.48988  -0.48689
 Alpha  occ. eigenvalues --   -0.48390  -0.48285  -0.47454  -0.47034  -0.46849
 Alpha  occ. eigenvalues --   -0.46644  -0.46550  -0.46398  -0.46263  -0.46217
 Alpha  occ. eigenvalues --   -0.45965  -0.45115  -0.44895  -0.44296  -0.44257
 Alpha  occ. eigenvalues --   -0.44139  -0.44088  -0.44022  -0.43965  -0.43862
 Alpha  occ. eigenvalues --   -0.43761  -0.43174  -0.42955  -0.42768  -0.42532
 Alpha  occ. eigenvalues --   -0.41865  -0.41701  -0.41659  -0.41602  -0.41467
 Alpha  occ. eigenvalues --   -0.41435  -0.41372  -0.41107  -0.40950  -0.40244
 Alpha  occ. eigenvalues --   -0.40030  -0.39969  -0.39655  -0.39579  -0.39332
 Alpha  occ. eigenvalues --   -0.39028  -0.38715  -0.38652  -0.38536  -0.38432
 Alpha  occ. eigenvalues --   -0.38394  -0.38307  -0.38006  -0.37222  -0.36423
 Alpha  occ. eigenvalues --   -0.35931  -0.35805  -0.35598  -0.35277  -0.34120
 Alpha  occ. eigenvalues --   -0.33864  -0.33502  -0.32695  -0.32449  -0.30171
 Alpha  occ. eigenvalues --   -0.30034  -0.29757  -0.28205  -0.27981  -0.27529
 Alpha  occ. eigenvalues --   -0.27253  -0.27032  -0.26874  -0.26659  -0.26205
 Alpha  occ. eigenvalues --   -0.26013  -0.25904  -0.25544  -0.25379  -0.25060
 Alpha  occ. eigenvalues --   -0.24718  -0.23860  -0.22166  -0.20576  -0.20068
 Alpha virt. eigenvalues --   -0.10149  -0.09391  -0.07049  -0.05286  -0.03625
 Alpha virt. eigenvalues --   -0.03398  -0.03296  -0.03061  -0.02241  -0.02038
 Alpha virt. eigenvalues --   -0.01926  -0.01106   0.00442   0.00661   0.00889

 Mulliken charges:
               1
     1  C    0.267675
     2  C    0.303506
     3  C   -0.098952
     4  C    0.294194
     5  C    0.295101
     6  C    0.102422
     7  C    0.266857
     8  C    0.301248
     9  C   -0.109345
    10  C    0.285643
    11  C   -0.131263
    12  C    0.294309
    13  H    0.106586
    14  H    0.101696
    15  H    0.102632
    16  N   -0.621286
    17  N   -0.616488
    18  N   -0.607912
    19  N   -0.607519
    20  C   -0.112656
    21  H    0.101019
    22  C   -0.156242
    23  H    0.109664
    24  C    0.087799
    25  C   -0.103402
    26  H    0.102138
    27  C    0.213904
    28  C    0.006703
    29  C    0.007120
    30  C   -0.008075
    31  C   -0.242250
    32  C    0.348373
    33  C    0.352316
    34  C    0.274913
    35  C    0.276209
    36  C    0.289603
    37  C   -0.239932
    38  C    0.349780
    39  C    0.346471
    40  C    0.275435
    41  C    0.274241
    42  C    0.289060
    43  C   -0.239431
    44  C    0.345807
    45  C    0.350785
    46  C    0.274806
    47  C    0.275932
    48  C    0.289459
    49  Ni   0.530519
    50  C   -0.335138
    51  C   -0.049166
    52  H    0.122098
    53  C   -0.248199
    54  C   -0.067452
    55  H    0.101407
    56  F   -0.282640
    57  F   -0.285805
    58  F   -0.282576
    59  F   -0.286576
    60  F   -0.286489
    61  F   -0.282604
    62  F   -0.285998
    63  F   -0.282566
    64  F   -0.286662
    65  F   -0.286796
    66  F   -0.286926
    67  F   -0.286465
    68  F   -0.282164
    69  F   -0.285480
    70  F   -0.282316
    71  H    0.095267
    72  H    0.110220
    73  C   -0.016335
    74  C   -0.076235
    75  C   -0.283573
    76  H    0.139522
    77  S    0.283726
    78  S    0.247210
    79  C   -0.286297
    80  H    0.127531
    81  O   -0.523774
    82  H    0.332079
 Sum of Mulliken charges =   0.00000

 Dipole moment (field-independent basis, Debye):
    X=             -1.8981    Y=             -3.8905    Z=             -2.0945  Tot=              4.8090
 Quadrupole moment (field-independent basis, Debye-Ang):
   XX=           -397.1232   YY=           -356.2723   ZZ=           -401.4790
   XY=             10.5746   XZ=              5.4166   YZ=             20.8639

 Normal termination of Gaussian 16 at Mon Oct 25 17:31:52 2021.
